<?xml version="1.0" encoding="UTF-8"?>

<!-- generated on 2023-09-10 20:51:52 by Eclipse SUMO sumo Version 1.17.0
<configuration xmlns:xsi="http://www.w3.org/2001/XMLSchema-instance" xsi:noNamespaceSchemaLocation="http://sumo.dlr.de/xsd/sumoConfiguration.xsd">

    <input>
        <net-file value="configs/Town05/Town05.net.xml"/>
        <route-files value="configs/Town05/Town05.rou.xml"/>
    </input>

    <output>
        <queue-output value="queue.xml"/>
        <tripinfo-output value="tripinfo.xml"/>
        <collision-output value="collision.xml"/>
    </output>

    <time>
        <step-length value="0.1"/>
    </time>

    <processing>
        <lateral-resolution value="0.25"/>
        <collision.check-junctions value="true"/>
    </processing>

    <emissions>
        <device.emissions.probability value="1.0"/>
    </emissions>

    <traci_server>
        <remote-port value="3001"/>
        <num-clients value="1"/>
    </traci_server>

    <gui_only>
        <gui-settings-file value="configs/Town05/viewsettings.xml"/>
    </gui_only>

</configuration>
-->

<tripinfos xmlns:xsi="http://www.w3.org/2001/XMLSchema-instance" xsi:noNamespaceSchemaLocation="http://sumo.dlr.de/xsd/tripinfo_file.xsd">
    <tripinfo id="f_1.0" depart="0.00" departLane="1_3" departPos="4.31" departPosLat="0.00" departSpeed="0.00" departDelay="0.00" arrival="19.90" arrivalLane="39_3" arrivalPos="46.43" arrivalPosLat="0.00" arrivalSpeed="14.62" duration="19.90" routeLength="194.87" waitingTime="0.00" waitingCount="0" stopTime="0.00" timeLoss="6.66" rerouteNo="0" devices="tripinfo_f_1.0 routing_f_1.0 emissions_f_1.0" vType="vehicle.seat.leon" speedFactor="1.06" vaporized="">
        <emissions CO_abs="1834.319503" CO2_abs="99494.518269" HC_abs="10.678157" PMx_abs="1.964605" NOx_abs="42.243379" fuel_abs="31734.112467" electricity_abs="0"/>
    </tripinfo>
    <tripinfo id="f_1.1" depart="2.50" departLane="1_3" departPos="4.31" departPosLat="0.00" departSpeed="0.00" departDelay="0.50" arrival="24.00" arrivalLane="39_3" arrivalPos="46.43" arrivalPosLat="0.00" arrivalSpeed="11.47" duration="21.50" routeLength="194.87" waitingTime="0.00" waitingCount="0" stopTime="0.00" timeLoss="4.58" rerouteNo="0" devices="tripinfo_f_1.1 routing_f_1.1 emissions_f_1.1" vType="vehicle.seat.leon" speedFactor="0.83" vaporized="">
        <emissions CO_abs="1530.773028" CO2_abs="79939.751826" HC_abs="8.832196" PMx_abs="1.483938" NOx_abs="33.422168" fuel_abs="25497.197341" electricity_abs="0"/>
    </tripinfo>
    <tripinfo id="f_1.2" depart="5.00" departLane="1_3" departPos="4.31" departPosLat="0.00" departSpeed="0.00" departDelay="1.00" arrival="25.70" arrivalLane="39_3" arrivalPos="46.43" arrivalPosLat="-0.00" arrivalSpeed="15.08" duration="20.70" routeLength="194.87" waitingTime="0.00" waitingCount="0" stopTime="0.00" timeLoss="7.78" rerouteNo="0" devices="tripinfo_f_1.2 routing_f_1.2 emissions_f_1.2" vType="vehicle.seat.leon" speedFactor="1.09" vaporized="">
        <emissions CO_abs="1861.697736" CO2_abs="98480.202912" HC_abs="10.796999" PMx_abs="1.950837" NOx_abs="41.949175" fuel_abs="31410.612699" electricity_abs="0"/>
    </tripinfo>
    <tripinfo id="f_1.3" depart="7.50" departLane="1_3" departPos="4.31" departPosLat="0.00" departSpeed="0.00" departDelay="1.50" arrival="28.40" arrivalLane="39_3" arrivalPos="46.43" arrivalPosLat="-0.00" arrivalSpeed="12.82" duration="20.90" routeLength="194.87" waitingTime="0.00" waitingCount="0" stopTime="0.00" timeLoss="5.75" rerouteNo="0" devices="tripinfo_f_1.3 routing_f_1.3 emissions_f_1.3" vType="vehicle.seat.leon" speedFactor="0.93" vaporized="">
        <emissions CO_abs="1671.353436" CO2_abs="88135.414650" HC_abs="9.664388" PMx_abs="1.696076" NOx_abs="37.226364" fuel_abs="28111.164168" electricity_abs="0"/>
    </tripinfo>
    <tripinfo id="f_2.1" depart="2.50" departLane="-14_3" departPos="4.31" departPosLat="0.00" departSpeed="0.00" departDelay="0.50" arrival="32.00" arrivalLane="-26_4" arrivalPos="61.99" arrivalPosLat="0.00" arrivalSpeed="14.40" duration="29.50" routeLength="206.69" waitingTime="2.70" waitingCount="1" stopTime="0.00" timeLoss="15.21" rerouteNo="0" devices="tripinfo_f_2.1 routing_f_2.1 emissions_f_2.1" vType="vehicle.seat.leon" speedFactor="1.05" vaporized="">
        <emissions CO_abs="2799.776784" CO2_abs="115206.413302" HC_abs="15.461286" PMx_abs="2.363906" NOx_abs="49.626979" fuel_abs="36745.796944" electricity_abs="0"/>
    </tripinfo>
    <tripinfo id="f_2.0" depart="0.00" departLane="-14_3" departPos="4.31" departPosLat="0.00" departSpeed="0.00" departDelay="0.00" arrival="32.20" arrivalLane="-26_3" arrivalPos="61.99" arrivalPosLat="0.00" arrivalSpeed="12.92" duration="32.20" routeLength="206.69" waitingTime="8.10" waitingCount="1" stopTime="0.00" timeLoss="16.34" rerouteNo="0" devices="tripinfo_f_2.0 routing_f_2.0 emissions_f_2.0" vType="vehicle.seat.leon" speedFactor="0.94" vaporized="">
        <emissions CO_abs="3293.721464" CO2_abs="116827.430989" HC_abs="17.727803" PMx_abs="2.375993" NOx_abs="50.113704" fuel_abs="37263.150417" electricity_abs="0"/>
    </tripinfo>
    <tripinfo id="f_2.2" depart="5.00" departLane="-14_3" departPos="4.31" departPosLat="0.00" departSpeed="0.00" departDelay="1.00" arrival="33.30" arrivalLane="-26_4" arrivalPos="61.99" arrivalPosLat="0.00" arrivalSpeed="14.19" duration="28.30" routeLength="206.69" waitingTime="0.00" waitingCount="0" stopTime="0.00" timeLoss="13.77" rerouteNo="0" devices="tripinfo_f_2.2 routing_f_2.2 emissions_f_2.2" vType="vehicle.seat.leon" speedFactor="1.03" vaporized="">
        <emissions CO_abs="2354.569269" CO2_abs="104767.308635" HC_abs="13.200654" PMx_abs="2.111176" NOx_abs="44.918392" fuel_abs="33416.102839" electricity_abs="0"/>
    </tripinfo>
    <tripinfo id="f_2.3" depart="7.50" departLane="-14_3" departPos="4.31" departPosLat="0.00" departSpeed="0.00" departDelay="1.50" arrival="33.80" arrivalLane="-26_3" arrivalPos="61.99" arrivalPosLat="-0.00" arrivalSpeed="12.19" duration="26.30" routeLength="206.69" waitingTime="0.00" waitingCount="0" stopTime="0.00" timeLoss="9.34" rerouteNo="0" devices="tripinfo_f_2.3 routing_f_2.3 emissions_f_2.3" vType="vehicle.seat.leon" speedFactor="0.88" vaporized="">
        <emissions CO_abs="1788.091378" CO2_abs="85073.800768" HC_abs="10.125145" PMx_abs="1.600579" NOx_abs="35.778337" fuel_abs="27134.798024" electricity_abs="0"/>
    </tripinfo>
    <tripinfo id="f_2.4" depart="10.00" departLane="-14_3" departPos="4.31" departPosLat="0.00" departSpeed="0.00" departDelay="2.00" arrival="35.20" arrivalLane="-26_3" arrivalPos="61.99" arrivalPosLat="-0.00" arrivalSpeed="13.98" duration="25.20" routeLength="206.69" waitingTime="0.00" waitingCount="0" stopTime="0.00" timeLoss="10.46" rerouteNo="0" devices="tripinfo_f_2.4 routing_f_2.4 emissions_f_2.4" vType="vehicle.seat.leon" speedFactor="1.01" vaporized="">
        <emissions CO_abs="1901.180119" CO2_abs="92349.627666" HC_abs="10.812046" PMx_abs="1.774572" NOx_abs="39.058801" fuel_abs="29455.399733" electricity_abs="0"/>
    </tripinfo>
    <tripinfo id="f_2.5" depart="12.50" departLane="-14_3" departPos="4.31" departPosLat="0.00" departSpeed="0.00" departDelay="2.50" arrival="36.60" arrivalLane="-26_4" arrivalPos="61.99" arrivalPosLat="0.00" arrivalSpeed="12.73" duration="24.10" routeLength="206.69" waitingTime="0.00" waitingCount="0" stopTime="0.00" timeLoss="7.83" rerouteNo="0" devices="tripinfo_f_2.5 routing_f_2.5 emissions_f_2.5" vType="vehicle.seat.leon" speedFactor="0.92" vaporized="">
        <emissions CO_abs="1725.929959" CO2_abs="87318.244998" HC_abs="9.882320" PMx_abs="1.644326" NOx_abs="36.672620" fuel_abs="27850.607997" electricity_abs="0"/>
    </tripinfo>
    <tripinfo id="f_2.6" depart="15.00" departLane="-14_3" departPos="4.31" departPosLat="0.00" departSpeed="0.00" departDelay="3.00" arrival="37.00" arrivalLane="-26_3" arrivalPos="61.99" arrivalPosLat="-0.00" arrivalSpeed="15.94" duration="22.00" routeLength="206.69" waitingTime="0.00" waitingCount="0" stopTime="0.00" timeLoss="9.03" rerouteNo="0" devices="tripinfo_f_2.6 routing_f_2.6 emissions_f_2.6" vType="vehicle.seat.leon" speedFactor="1.15" vaporized="">
        <emissions CO_abs="1848.036240" CO2_abs="98826.785467" HC_abs="10.729698" PMx_abs="1.936369" NOx_abs="41.872172" fuel_abs="31521.170761" electricity_abs="0"/>
    </tripinfo>
    <tripinfo id="f_2.7" depart="17.50" departLane="-14_3" departPos="4.31" departPosLat="0.00" departSpeed="0.00" departDelay="3.50" arrival="39.70" arrivalLane="-26_3" arrivalPos="61.99" arrivalPosLat="-0.00" arrivalSpeed="13.46" duration="22.20" routeLength="206.69" waitingTime="0.00" waitingCount="0" stopTime="0.00" timeLoss="6.87" rerouteNo="0" devices="tripinfo_f_2.7 routing_f_2.7 emissions_f_2.7" vType="vehicle.seat.leon" speedFactor="0.97" vaporized="">
        <emissions CO_abs="1671.780277" CO2_abs="88500.366363" HC_abs="9.679801" PMx_abs="1.678086" NOx_abs="37.212041" fuel_abs="28227.593058" electricity_abs="0"/>
    </tripinfo>
    <tripinfo id="f_2.8" depart="20.00" departLane="-14_3" departPos="4.31" departPosLat="0.00" departSpeed="0.00" departDelay="4.00" arrival="41.80" arrivalLane="-26_3" arrivalPos="61.99" arrivalPosLat="0.00" arrivalSpeed="13.17" duration="21.80" routeLength="206.69" waitingTime="0.00" waitingCount="0" stopTime="0.00" timeLoss="6.22" rerouteNo="0" devices="tripinfo_f_2.8 routing_f_2.8 emissions_f_2.8" vType="vehicle.seat.leon" speedFactor="0.96" vaporized="">
        <emissions CO_abs="1634.190416" CO2_abs="86926.941568" HC_abs="9.483995" PMx_abs="1.661379" NOx_abs="36.631739" fuel_abs="27725.723812" electricity_abs="0"/>
    </tripinfo>
    <tripinfo id="f_2.9" depart="22.50" departLane="-14_3" departPos="4.31" departPosLat="0.00" departSpeed="0.00" departDelay="4.50" arrival="44.00" arrivalLane="-26_3" arrivalPos="61.99" arrivalPosLat="-0.00" arrivalSpeed="13.78" duration="21.50" routeLength="206.69" waitingTime="0.00" waitingCount="0" stopTime="0.00" timeLoss="6.52" rerouteNo="0" devices="tripinfo_f_2.9 routing_f_2.9 emissions_f_2.9" vType="vehicle.seat.leon" speedFactor="1.00" vaporized="">
        <emissions CO_abs="1686.076014" CO2_abs="91204.503468" HC_abs="9.806919" PMx_abs="1.745808" NOx_abs="38.400749" fuel_abs="29090.050432" electricity_abs="0"/>
    </tripinfo>
    <tripinfo id="f_1.5" depart="12.50" departLane="1_3" departPos="4.31" departPosLat="0.00" departSpeed="0.00" departDelay="2.50" arrival="46.40" arrivalLane="39_4" arrivalPos="46.43" arrivalPosLat="0.00" arrivalSpeed="12.02" duration="33.90" routeLength="194.87" waitingTime="6.20" waitingCount="1" stopTime="0.00" timeLoss="17.80" rerouteNo="0" devices="tripinfo_f_1.5 routing_f_1.5 emissions_f_1.5" vType="vehicle.seat.leon" speedFactor="0.87" vaporized="">
        <emissions CO_abs="3218.584055" CO2_abs="112176.816387" HC_abs="17.283719" PMx_abs="2.280627" NOx_abs="48.271547" fuel_abs="35779.822732" electricity_abs="0"/>
    </tripinfo>
    <tripinfo id="f_1.4" depart="10.00" departLane="1_3" departPos="4.31" departPosLat="0.00" departSpeed="0.00" departDelay="2.00" arrival="46.50" arrivalLane="39_3" arrivalPos="46.43" arrivalPosLat="-0.00" arrivalSpeed="14.08" duration="36.50" routeLength="194.87" waitingTime="12.00" waitingCount="1" stopTime="0.00" timeLoss="22.71" rerouteNo="0" devices="tripinfo_f_1.4 routing_f_1.4 emissions_f_1.4" vType="vehicle.seat.leon" speedFactor="1.02" vaporized="">
        <emissions CO_abs="4256.246977" CO2_abs="136683.593343" HC_abs="22.608483" PMx_abs="2.889416" NOx_abs="59.466756" fuel_abs="43596.575922" electricity_abs="0"/>
    </tripinfo>
    <tripinfo id="f_1.6" depart="15.00" departLane="1_3" departPos="4.31" departPosLat="0.00" departSpeed="0.00" departDelay="3.00" arrival="47.80" arrivalLane="39_3" arrivalPos="46.43" arrivalPosLat="-0.00" arrivalSpeed="16.01" duration="32.80" routeLength="194.87" waitingTime="3.30" waitingCount="1" stopTime="0.00" timeLoss="20.81" rerouteNo="0" devices="tripinfo_f_1.6 routing_f_1.6 emissions_f_1.6" vType="vehicle.seat.leon" speedFactor="1.18" vaporized="">
        <emissions CO_abs="3275.820386" CO2_abs="123938.694541" HC_abs="17.856091" PMx_abs="2.587036" NOx_abs="53.795931" fuel_abs="39531.126029" electricity_abs="0"/>
    </tripinfo>
    <tripinfo id="f_1.9" depart="22.40" departLane="1_3" departPos="4.31" departPosLat="0.00" departSpeed="0.00" departDelay="4.40" arrival="47.80" arrivalLane="39_4" arrivalPos="46.43" arrivalPosLat="0.00" arrivalSpeed="14.33" duration="25.40" routeLength="194.87" waitingTime="0.00" waitingCount="0" stopTime="0.00" timeLoss="12.42" rerouteNo="0" devices="tripinfo_f_1.9 routing_f_1.9 emissions_f_1.9" vType="vehicle.seat.leon" speedFactor="1.09" vaporized="">
        <emissions CO_abs="2239.268402" CO2_abs="105492.609475" HC_abs="12.694291" PMx_abs="2.109350" NOx_abs="45.203507" fuel_abs="33647.371617" electricity_abs="0"/>
    </tripinfo>
    <tripinfo id="f_1.7" depart="17.50" departLane="1_3" departPos="4.31" departPosLat="0.00" departSpeed="0.00" departDelay="3.50" arrival="49.10" arrivalLane="39_3" arrivalPos="46.43" arrivalPosLat="-0.00" arrivalSpeed="14.09" duration="31.60" routeLength="194.87" waitingTime="1.30" waitingCount="1" stopTime="0.00" timeLoss="17.75" rerouteNo="0" devices="tripinfo_f_1.7 routing_f_1.7 emissions_f_1.7" vType="vehicle.seat.leon" speedFactor="1.02" vaporized="">
        <emissions CO_abs="2754.412675" CO2_abs="106252.891626" HC_abs="15.038676" PMx_abs="2.159143" NOx_abs="45.730644" fuel_abs="33890.144256" electricity_abs="0"/>
    </tripinfo>
    <tripinfo id="f_1.8" depart="19.90" departLane="1_3" departPos="4.31" departPosLat="0.00" departSpeed="0.00" departDelay="3.90" arrival="49.10" arrivalLane="39_4" arrivalPos="46.43" arrivalPosLat="0.00" arrivalSpeed="14.21" duration="29.20" routeLength="194.87" waitingTime="0.00" waitingCount="0" stopTime="0.00" timeLoss="15.49" rerouteNo="0" devices="tripinfo_f_1.8 routing_f_1.8 emissions_f_1.8" vType="vehicle.seat.leon" speedFactor="1.03" vaporized="">
        <emissions CO_abs="2197.156724" CO2_abs="95650.180483" HC_abs="12.258962" PMx_abs="1.886749" NOx_abs="40.839901" fuel_abs="30508.214681" electricity_abs="0"/>
    </tripinfo>
    <tripinfo id="f_1.11" depart="27.40" departLane="1_3" departPos="4.31" departPosLat="0.00" departSpeed="0.00" departDelay="5.40" arrival="50.80" arrivalLane="39_3" arrivalPos="46.43" arrivalPosLat="-0.00" arrivalSpeed="13.83" duration="23.40" routeLength="194.87" waitingTime="0.00" waitingCount="0" stopTime="0.00" timeLoss="9.24" rerouteNo="0" devices="tripinfo_f_1.11 routing_f_1.11 emissions_f_1.11" vType="vehicle.seat.leon" speedFactor="1.00" vaporized="">
        <emissions CO_abs="1873.287187" CO2_abs="93290.425534" HC_abs="10.708833" PMx_abs="1.807714" NOx_abs="39.581908" fuel_abs="29755.421163" electricity_abs="0"/>
    </tripinfo>
    <tripinfo id="f_1.10" depart="24.90" departLane="1_3" departPos="4.31" departPosLat="0.00" departSpeed="0.00" departDelay="4.90" arrival="50.90" arrivalLane="39_4" arrivalPos="46.43" arrivalPosLat="0.00" arrivalSpeed="11.82" duration="26.00" routeLength="194.87" waitingTime="0.00" waitingCount="0" stopTime="0.00" timeLoss="9.53" rerouteNo="0" devices="tripinfo_f_1.10 routing_f_1.10 emissions_f_1.10" vType="vehicle.seat.leon" speedFactor="0.85" vaporized="">
        <emissions CO_abs="2003.943778" CO2_abs="91924.900269" HC_abs="11.287569" PMx_abs="1.785666" NOx_abs="39.107188" fuel_abs="29319.974220" electricity_abs="0"/>
    </tripinfo>
    <tripinfo id="f_1.12" depart="29.90" departLane="1_3" departPos="4.31" departPosLat="0.00" departSpeed="0.00" departDelay="5.90" arrival="52.50" arrivalLane="39_3" arrivalPos="46.43" arrivalPosLat="-0.00" arrivalSpeed="14.94" duration="22.60" routeLength="194.87" waitingTime="0.00" waitingCount="0" stopTime="0.00" timeLoss="9.56" rerouteNo="0" devices="tripinfo_f_1.12 routing_f_1.12 emissions_f_1.12" vType="vehicle.seat.leon" speedFactor="1.08" vaporized="">
        <emissions CO_abs="1837.952553" CO2_abs="93269.170201" HC_abs="10.556204" PMx_abs="1.795578" NOx_abs="39.450299" fuel_abs="29748.636206" electricity_abs="0"/>
    </tripinfo>
    <tripinfo id="f_1.13" depart="32.30" departLane="1_3" departPos="4.31" departPosLat="0.00" departSpeed="0.00" departDelay="6.30" arrival="55.10" arrivalLane="39_3" arrivalPos="46.43" arrivalPosLat="-0.00" arrivalSpeed="12.23" duration="22.80" routeLength="194.87" waitingTime="0.00" waitingCount="0" stopTime="0.00" timeLoss="6.88" rerouteNo="0" devices="tripinfo_f_1.13 routing_f_1.13 emissions_f_1.13" vType="vehicle.seat.leon" speedFactor="0.88" vaporized="">
        <emissions CO_abs="1654.347736" CO2_abs="83816.760527" HC_abs="9.481794" PMx_abs="1.554985" NOx_abs="35.098256" fuel_abs="26733.815179" electricity_abs="0"/>
    </tripinfo>
    <tripinfo id="f_1.14" depart="34.80" departLane="1_3" departPos="4.31" departPosLat="0.00" departSpeed="0.00" departDelay="6.80" arrival="56.70" arrivalLane="39_3" arrivalPos="46.43" arrivalPosLat="-0.00" arrivalSpeed="14.14" duration="21.90" routeLength="194.87" waitingTime="0.00" waitingCount="0" stopTime="0.00" timeLoss="8.15" rerouteNo="0" devices="tripinfo_f_1.14 routing_f_1.14 emissions_f_1.14" vType="vehicle.seat.leon" speedFactor="1.02" vaporized="">
        <emissions CO_abs="1759.158937" CO2_abs="90065.998874" HC_abs="10.131818" PMx_abs="1.740943" NOx_abs="38.162958" fuel_abs="28726.953337" electricity_abs="0"/>
    </tripinfo>
    <tripinfo id="f_3.0" depart="0.00" departLane="-19_3" departPos="5.14" departPosLat="0.00" departSpeed="0.00" departDelay="0.00" arrival="61.50" arrivalLane="-0_4" arrivalPos="53.56" arrivalPosLat="0.00" arrivalSpeed="13.98" duration="61.50" routeLength="395.71" waitingTime="20.90" waitingCount="1" stopTime="0.00" timeLoss="31.30" rerouteNo="0" devices="tripinfo_f_3.0 routing_f_3.0 emissions_f_3.0" vType="vehicle.mercedes.coupe" speedFactor="1.01" vaporized="">
        <emissions CO_abs="6342.614000" CO2_abs="213110.551119" HC_abs="33.808941" PMx_abs="4.362858" NOx_abs="91.228940" fuel_abs="67973.705212" electricity_abs="0"/>
    </tripinfo>
    <tripinfo id="f_3.1" depart="3.40" departLane="-19_3" departPos="5.14" departPosLat="0.00" departSpeed="0.00" departDelay="1.40" arrival="61.80" arrivalLane="-0_3" arrivalPos="53.56" arrivalPosLat="-0.00" arrivalSpeed="12.26" duration="58.40" routeLength="395.71" waitingTime="11.20" waitingCount="1" stopTime="0.00" timeLoss="24.10" rerouteNo="0" devices="tripinfo_f_3.1 routing_f_3.1 emissions_f_3.1" vType="vehicle.mercedes.coupe" speedFactor="0.89" vaporized="">
        <emissions CO_abs="4799.291350" CO2_abs="178315.295274" HC_abs="25.996166" PMx_abs="3.462597" NOx_abs="75.344725" fuel_abs="56875.302323" electricity_abs="0"/>
    </tripinfo>
    <tripinfo id="f_3.3" depart="10.20" departLane="-19_3" departPos="5.14" departPosLat="0.00" departSpeed="0.00" departDelay="4.20" arrival="62.90" arrivalLane="-0_4" arrivalPos="53.56" arrivalPosLat="0.00" arrivalSpeed="12.98" duration="52.70" routeLength="395.71" waitingTime="4.00" waitingCount="1" stopTime="0.00" timeLoss="20.43" rerouteNo="0" devices="tripinfo_f_3.3 routing_f_3.3 emissions_f_3.3" vType="vehicle.mercedes.coupe" speedFactor="0.94" vaporized="">
        <emissions CO_abs="3753.561916" CO2_abs="159823.972499" HC_abs="20.770304" PMx_abs="3.040624" NOx_abs="67.024043" fuel_abs="50977.048019" electricity_abs="0"/>
    </tripinfo>
    <tripinfo id="f_3.2" depart="6.90" departLane="-19_3" departPos="5.14" departPosLat="0.00" departSpeed="0.00" departDelay="2.90" arrival="63.20" arrivalLane="-0_3" arrivalPos="53.56" arrivalPosLat="-0.00" arrivalSpeed="14.47" duration="56.30" routeLength="395.71" waitingTime="8.70" waitingCount="1" stopTime="0.00" timeLoss="27.13" rerouteNo="0" devices="tripinfo_f_3.2 routing_f_3.2 emissions_f_3.2" vType="vehicle.mercedes.coupe" speedFactor="1.05" vaporized="">
        <emissions CO_abs="4621.141722" CO2_abs="177650.903324" HC_abs="25.164752" PMx_abs="3.532642" NOx_abs="75.578028" fuel_abs="56663.188476" electricity_abs="0"/>
    </tripinfo>
    <tripinfo id="f_3.4" depart="13.60" departLane="-19_3" departPos="5.14" departPosLat="0.00" departSpeed="0.00" departDelay="5.60" arrival="64.40" arrivalLane="-0_4" arrivalPos="53.56" arrivalPosLat="0.00" arrivalSpeed="13.52" duration="50.80" routeLength="395.71" waitingTime="2.20" waitingCount="1" stopTime="0.00" timeLoss="19.57" rerouteNo="0" devices="tripinfo_f_3.4 routing_f_3.4 emissions_f_3.4" vType="vehicle.mercedes.coupe" speedFactor="0.97" vaporized="">
        <emissions CO_abs="3546.801927" CO2_abs="157604.022788" HC_abs="19.752597" PMx_abs="2.989362" NOx_abs="66.024608" fuel_abs="50268.885996" electricity_abs="0"/>
    </tripinfo>
    <tripinfo id="f_3.5" depart="17.10" departLane="-19_3" departPos="5.14" departPosLat="0.00" departSpeed="0.00" departDelay="7.10" arrival="66.00" arrivalLane="-0_4" arrivalPos="53.56" arrivalPosLat="0.00" arrivalSpeed="13.13" duration="48.90" routeLength="395.71" waitingTime="0.30" waitingCount="1" stopTime="0.00" timeLoss="16.84" rerouteNo="0" devices="tripinfo_f_3.5 routing_f_3.5 emissions_f_3.5" vType="vehicle.mercedes.coupe" speedFactor="0.95" vaporized="">
        <emissions CO_abs="3213.261775" CO2_abs="151067.869174" HC_abs="18.081516" PMx_abs="2.801131" NOx_abs="62.858604" fuel_abs="48184.091397" electricity_abs="0"/>
    </tripinfo>
    <tripinfo id="f_3.6" depart="20.50" departLane="-19_3" departPos="5.14" departPosLat="0.00" departSpeed="0.00" departDelay="8.50" arrival="67.20" arrivalLane="-0_3" arrivalPos="53.56" arrivalPosLat="-0.00" arrivalSpeed="13.85" duration="46.70" routeLength="395.71" waitingTime="0.00" waitingCount="0" stopTime="0.00" timeLoss="16.41" rerouteNo="0" devices="tripinfo_f_3.6 routing_f_3.6 emissions_f_3.6" vType="vehicle.mercedes.coupe" speedFactor="1.01" vaporized="">
        <emissions CO_abs="3067.770546" CO2_abs="151239.825104" HC_abs="17.441315" PMx_abs="2.870420" NOx_abs="63.349765" fuel_abs="48238.766187" electricity_abs="0"/>
    </tripinfo>
    <tripinfo id="f_3.8" depart="27.20" departLane="-19_3" departPos="5.14" departPosLat="0.00" departSpeed="0.00" departDelay="11.20" arrival="68.80" arrivalLane="-0_4" arrivalPos="53.56" arrivalPosLat="0.00" arrivalSpeed="15.05" duration="41.60" routeLength="395.71" waitingTime="1.90" waitingCount="1" stopTime="0.00" timeLoss="13.65" rerouteNo="0" devices="tripinfo_f_3.8 routing_f_3.8 emissions_f_3.8" vType="vehicle.mercedes.coupe" speedFactor="1.09" vaporized="">
        <emissions CO_abs="3337.013455" CO2_abs="169401.027588" HC_abs="19.114233" PMx_abs="3.299333" NOx_abs="71.331742" fuel_abs="54031.233460" electricity_abs="0"/>
    </tripinfo>
    <tripinfo id="f_3.7" depart="23.90" departLane="-19_3" departPos="5.14" departPosLat="0.00" departSpeed="0.00" departDelay="9.90" arrival="68.90" arrivalLane="-0_3" arrivalPos="53.56" arrivalPosLat="-0.00" arrivalSpeed="16.32" duration="45.00" routeLength="395.71" waitingTime="0.00" waitingCount="0" stopTime="0.00" timeLoss="19.01" rerouteNo="0" devices="tripinfo_f_3.7 routing_f_3.7 emissions_f_3.7" vType="vehicle.mercedes.coupe" speedFactor="1.18" vaporized="">
        <emissions CO_abs="3277.702854" CO2_abs="166599.281351" HC_abs="18.813869" PMx_abs="3.266248" NOx_abs="70.431771" fuel_abs="53137.570031" electricity_abs="0"/>
    </tripinfo>
    <tripinfo id="f_3.9" depart="30.60" departLane="-19_3" departPos="5.14" departPosLat="0.00" departSpeed="0.00" departDelay="12.60" arrival="71.60" arrivalLane="-0_4" arrivalPos="53.56" arrivalPosLat="0.00" arrivalSpeed="12.47" duration="41.00" routeLength="395.71" waitingTime="0.00" waitingCount="0" stopTime="0.00" timeLoss="7.31" rerouteNo="0" devices="tripinfo_f_3.9 routing_f_3.9 emissions_f_3.9" vType="vehicle.mercedes.coupe" speedFactor="0.90" vaporized="">
        <emissions CO_abs="2316.510264" CO2_abs="134079.982176" HC_abs="13.632311" PMx_abs="2.337998" NOx_abs="54.794253" fuel_abs="42765.531760" electricity_abs="0"/>
    </tripinfo>
    <tripinfo id="f_3.10" depart="34.10" departLane="-19_3" departPos="5.14" departPosLat="0.00" departSpeed="0.00" departDelay="14.10" arrival="73.30" arrivalLane="-0_4" arrivalPos="53.56" arrivalPosLat="0.00" arrivalSpeed="14.10" duration="39.20" routeLength="395.71" waitingTime="0.00" waitingCount="0" stopTime="0.00" timeLoss="9.27" rerouteNo="0" devices="tripinfo_f_3.10 routing_f_3.10 emissions_f_3.10" vType="vehicle.mercedes.coupe" speedFactor="1.02" vaporized="">
        <emissions CO_abs="2530.446865" CO2_abs="144728.544876" HC_abs="14.843007" PMx_abs="2.646718" NOx_abs="59.894386" fuel_abs="46161.820397" electricity_abs="0"/>
    </tripinfo>
    <tripinfo id="f_5.0" depart="2.60" departLane="-28_4" departPos="5.14" departPosLat="0.00" departSpeed="0.00" departDelay="2.60" arrival="76.10" arrivalLane="-0_4" arrivalPos="53.56" arrivalPosLat="0.00" arrivalSpeed="14.20" duration="73.50" routeLength="189.02" waitingTime="51.50" waitingCount="1" stopTime="0.00" timeLoss="59.69" rerouteNo="0" devices="tripinfo_f_5.0 routing_f_5.0 emissions_f_5.0" vType="vehicle.mercedes.coupe" speedFactor="1.03" vaporized="">
        <emissions CO_abs="10500.400940" CO2_abs="232706.381332" HC_abs="53.257790" PMx_abs="5.328300" NOx_abs="103.497361" fuel_abs="74225.612595" electricity_abs="0"/>
    </tripinfo>
    <tripinfo id="f_4.0" depart="0.00" departLane="-28_4" departPos="5.14" departPosLat="0.00" departSpeed="0.00" departDelay="0.00" arrival="77.00" arrivalLane="25_3" arrivalPos="64.03" arrivalPosLat="0.00" arrivalSpeed="14.96" duration="77.00" routeLength="202.19" waitingTime="54.20" waitingCount="1" stopTime="0.00" timeLoss="63.52" rerouteNo="0" devices="tripinfo_f_4.0 routing_f_4.0 emissions_f_4.0" vType="vehicle.mercedes.coupe" speedFactor="1.08" vaporized="">
        <emissions CO_abs="11053.387590" CO2_abs="247775.768970" HC_abs="56.135999" PMx_abs="5.675740" NOx_abs="110.168403" fuel_abs="79032.167895" electricity_abs="0"/>
    </tripinfo>
    <tripinfo id="f_5.1" depart="7.90" departLane="-28_4" departPos="5.14" departPosLat="0.00" departSpeed="0.00" departDelay="5.90" arrival="78.40" arrivalLane="-0_4" arrivalPos="53.56" arrivalPosLat="0.00" arrivalSpeed="11.82" duration="70.50" routeLength="189.02" waitingTime="43.00" waitingCount="1" stopTime="0.00" timeLoss="53.88" rerouteNo="0" devices="tripinfo_f_5.1 routing_f_5.1 emissions_f_5.1" vType="vehicle.mercedes.coupe" speedFactor="0.86" vaporized="">
        <emissions CO_abs="9155.678601" CO2_abs="199137.849724" HC_abs="46.359970" PMx_abs="4.485040" NOx_abs="88.225935" fuel_abs="63518.554501" electricity_abs="0"/>
    </tripinfo>
    <tripinfo id="f_4.1" depart="5.20" departLane="-28_4" departPos="5.14" departPosLat="0.00" departSpeed="0.00" departDelay="3.20" arrival="78.70" arrivalLane="25_3" arrivalPos="64.03" arrivalPosLat="0.00" arrivalSpeed="12.91" duration="73.50" routeLength="202.19" waitingTime="46.00" waitingCount="1" stopTime="0.00" timeLoss="57.98" rerouteNo="0" devices="tripinfo_f_4.1 routing_f_4.1 emissions_f_4.1" vType="vehicle.mercedes.coupe" speedFactor="0.94" vaporized="">
        <emissions CO_abs="9765.537759" CO2_abs="215493.697068" HC_abs="49.501723" PMx_abs="4.894494" NOx_abs="95.645498" fuel_abs="68735.407621" electricity_abs="0"/>
    </tripinfo>
    <tripinfo id="f_5.2" depart="13.20" departLane="-28_4" departPos="5.14" departPosLat="0.00" departSpeed="0.00" departDelay="9.20" arrival="79.80" arrivalLane="-0_4" arrivalPos="53.56" arrivalPosLat="0.00" arrivalSpeed="13.74" duration="66.60" routeLength="189.02" waitingTime="38.80" waitingCount="1" stopTime="0.00" timeLoss="52.26" rerouteNo="0" devices="tripinfo_f_5.2 routing_f_5.2 emissions_f_5.2" vType="vehicle.mercedes.coupe" speedFactor="0.99" vaporized="">
        <emissions CO_abs="8736.736397" CO2_abs="200533.708921" HC_abs="44.500007" PMx_abs="4.513919" NOx_abs="88.863111" fuel_abs="63963.482240" electricity_abs="0"/>
    </tripinfo>
    <tripinfo id="f_4.2" depart="10.60" departLane="-28_4" departPos="5.14" departPosLat="0.00" departSpeed="0.00" departDelay="6.60" arrival="80.10" arrivalLane="25_3" arrivalPos="64.03" arrivalPosLat="0.00" arrivalSpeed="15.43" duration="69.50" routeLength="202.19" waitingTime="41.60" waitingCount="1" stopTime="0.00" timeLoss="56.53" rerouteNo="0" devices="tripinfo_f_4.2 routing_f_4.2 emissions_f_4.2" vType="vehicle.mercedes.coupe" speedFactor="1.12" vaporized="">
        <emissions CO_abs="9321.451859" CO2_abs="218404.074044" HC_abs="47.585741" PMx_abs="4.939100" NOx_abs="96.849927" fuel_abs="69663.381172" electricity_abs="0"/>
    </tripinfo>
    <tripinfo id="f_5.3" depart="18.40" departLane="-28_4" departPos="5.14" departPosLat="0.00" departSpeed="0.00" departDelay="12.40" arrival="81.10" arrivalLane="-0_4" arrivalPos="53.56" arrivalPosLat="0.00" arrivalSpeed="15.76" duration="62.70" routeLength="189.02" waitingTime="34.60" waitingCount="1" stopTime="0.00" timeLoss="50.43" rerouteNo="0" devices="tripinfo_f_5.3 routing_f_5.3 emissions_f_5.3" vType="vehicle.mercedes.coupe" speedFactor="1.16" vaporized="">
        <emissions CO_abs="8258.551077" CO2_abs="198957.441773" HC_abs="42.301752" PMx_abs="4.480112" NOx_abs="88.203585" fuel_abs="63460.442706" electricity_abs="0"/>
    </tripinfo>
    <tripinfo id="f_4.3" depart="15.80" departLane="-28_4" departPos="5.14" departPosLat="0.00" departSpeed="0.00" departDelay="9.80" arrival="82.00" arrivalLane="25_3" arrivalPos="64.03" arrivalPosLat="0.00" arrivalSpeed="12.99" duration="66.20" routeLength="202.19" waitingTime="37.20" waitingCount="1" stopTime="0.00" timeLoss="50.56" rerouteNo="0" devices="tripinfo_f_4.3 routing_f_4.3 emissions_f_4.3" vType="vehicle.mercedes.coupe" speedFactor="0.94" vaporized="">
        <emissions CO_abs="8514.646077" CO2_abs="198263.959877" HC_abs="43.417423" PMx_abs="4.443119" NOx_abs="87.679523" fuel_abs="63239.453953" electricity_abs="0"/>
    </tripinfo>