<?xml version="1.0" encoding="UTF-8"?>

<!-- generated on 2023-09-25 00:33:03 by Eclipse SUMO sumo Version 1.17.0
<configuration xmlns:xsi="http://www.w3.org/2001/XMLSchema-instance" xsi:noNamespaceSchemaLocation="http://sumo.dlr.de/xsd/sumoConfiguration.xsd">

    <input>
        <net-file value="configs/Town05/Town05.net.xml"/>
        <route-files value="configs/Town05/Town05.rou.xml"/>
    </input>

    <output>
        <queue-output value="queue.xml"/>
        <tripinfo-output value="tripinfo.xml"/>
        <collision-output value="collision.xml"/>
    </output>

    <time>
        <step-length value="0.1"/>
    </time>

    <processing>
        <lateral-resolution value="0.25"/>
        <collision.check-junctions value="true"/>
    </processing>

    <emissions>
        <device.emissions.probability value="1.0"/>
    </emissions>

    <traci_server>
        <remote-port value="3001"/>
        <num-clients value="1"/>
    </traci_server>

    <gui_only>
        <gui-settings-file value="configs/Town05/viewsettings.xml"/>
    </gui_only>

</configuration>
-->

<tripinfos xmlns:xsi="http://www.w3.org/2001/XMLSchema-instance" xsi:noNamespaceSchemaLocation="http://sumo.dlr.de/xsd/tripinfo_file.xsd">
    <tripinfo id="f_4.0" depart="0.00" departLane="-28_4" departPos="5.14" departPosLat="0.00" departSpeed="0.00" departDelay="0.00" arrival="20.10" arrivalLane="25_3" arrivalPos="64.03" arrivalPosLat="0.00" arrivalSpeed="15.02" duration="20.10" routeLength="202.19" waitingTime="0.00" waitingCount="0" stopTime="0.00" timeLoss="6.59" rerouteNo="0" devices="tripinfo_f_4.0 routing_f_4.0 emissions_f_4.0" vType="vehicle.mercedes.coupe" speedFactor="1.08" vaporized="">
        <emissions CO_abs="1759.400657" CO2_abs="96729.960651" HC_abs="10.278090" PMx_abs="1.875230" NOx_abs="40.768936" fuel_abs="30852.380295" electricity_abs="0"/>
    </tripinfo>
    <tripinfo id="f_5.0" depart="2.80" departLane="-28_4" departPos="5.14" departPosLat="0.00" departSpeed="0.00" departDelay="2.80" arrival="22.40" arrivalLane="-0_4" arrivalPos="53.56" arrivalPosLat="0.00" arrivalSpeed="14.14" duration="19.60" routeLength="189.02" waitingTime="0.00" waitingCount="0" stopTime="0.00" timeLoss="5.76" rerouteNo="0" devices="tripinfo_f_5.0 routing_f_5.0 emissions_f_5.0" vType="vehicle.mercedes.coupe" speedFactor="1.03" vaporized="">
        <emissions CO_abs="1682.705600" CO2_abs="89043.086657" HC_abs="9.758873" PMx_abs="1.734941" NOx_abs="37.678169" fuel_abs="28400.648330" electricity_abs="0"/>
    </tripinfo>
    <tripinfo id="f_4.1" depart="5.60" departLane="-28_4" departPos="5.14" departPosLat="0.00" departSpeed="0.00" departDelay="3.60" arrival="26.40" arrivalLane="25_3" arrivalPos="64.03" arrivalPosLat="0.00" arrivalSpeed="12.96" duration="20.80" routeLength="202.19" waitingTime="0.00" waitingCount="0" stopTime="0.00" timeLoss="5.24" rerouteNo="0" devices="tripinfo_f_4.1 routing_f_4.1 emissions_f_4.1" vType="vehicle.mercedes.coupe" speedFactor="0.94" vaporized="">
        <emissions CO_abs="1549.551214" CO2_abs="84016.217568" HC_abs="9.011245" PMx_abs="1.565415" NOx_abs="35.053241" fuel_abs="26797.367571" electricity_abs="0"/>
    </tripinfo>
    <tripinfo id="f_5.1" depart="8.40" departLane="-28_4" departPos="5.14" departPosLat="0.00" departSpeed="0.00" departDelay="6.40" arrival="29.80" arrivalLane="-0_4" arrivalPos="53.56" arrivalPosLat="0.00" arrivalSpeed="11.70" duration="21.40" routeLength="189.02" waitingTime="0.00" waitingCount="0" stopTime="0.00" timeLoss="4.75" rerouteNo="0" devices="tripinfo_f_5.1 routing_f_5.1 emissions_f_5.1" vType="vehicle.mercedes.coupe" speedFactor="0.86" vaporized="">
        <emissions CO_abs="1484.040599" CO2_abs="75174.761270" HC_abs="8.505880" PMx_abs="1.368115" NOx_abs="31.264300" fuel_abs="23977.436453" electricity_abs="0"/>
    </tripinfo>
    <tripinfo id="f_1.0" depart="0.00" departLane="1_3" departPos="4.31" departPosLat="0.00" departSpeed="0.00" departDelay="0.00" arrival="32.10" arrivalLane="39_3" arrivalPos="46.43" arrivalPosLat="0.00" arrivalSpeed="14.69" duration="32.10" routeLength="194.87" waitingTime="7.40" waitingCount="1" stopTime="0.00" timeLoss="18.78" rerouteNo="0" devices="tripinfo_f_1.0 routing_f_1.0 emissions_f_1.0" vType="vehicle.seat.leon" speedFactor="1.06" vaporized="">
        <emissions CO_abs="3549.173569" CO2_abs="129527.242225" HC_abs="19.215467" PMx_abs="2.654129" NOx_abs="55.797364" fuel_abs="41313.775229" electricity_abs="0"/>
    </tripinfo>
    <tripinfo id="f_1.2" depart="5.20" departLane="1_3" departPos="4.31" departPosLat="0.00" departSpeed="0.00" departDelay="1.20" arrival="32.80" arrivalLane="39_4" arrivalPos="46.43" arrivalPosLat="0.00" arrivalSpeed="14.47" duration="27.60" routeLength="194.87" waitingTime="2.10" waitingCount="1" stopTime="0.00" timeLoss="14.69" rerouteNo="0" devices="tripinfo_f_1.2 routing_f_1.2 emissions_f_1.2" vType="vehicle.seat.leon" speedFactor="1.09" vaporized="">
        <emissions CO_abs="2797.604198" CO2_abs="118073.156041" HC_abs="15.530366" PMx_abs="2.356739" NOx_abs="50.511836" fuel_abs="37660.191355" electricity_abs="0"/>
    </tripinfo>
    <tripinfo id="f_1.4" depart="10.60" departLane="1_3" departPos="4.31" departPosLat="0.00" departSpeed="0.00" departDelay="2.60" arrival="33.50" arrivalLane="39_3" arrivalPos="46.43" arrivalPosLat="-0.00" arrivalSpeed="14.11" duration="22.90" routeLength="194.87" waitingTime="0.00" waitingCount="0" stopTime="0.00" timeLoss="9.06" rerouteNo="0" devices="tripinfo_f_1.4 routing_f_1.4 emissions_f_1.4" vType="vehicle.seat.leon" speedFactor="1.02" vaporized="">
        <emissions CO_abs="1975.843015" CO2_abs="99528.145205" HC_abs="11.340136" PMx_abs="1.920125" NOx_abs="42.141700" fuel_abs="31744.972141" electricity_abs="0"/>
    </tripinfo>
    <tripinfo id="f_1.1" depart="2.60" departLane="1_3" departPos="4.31" departPosLat="0.00" departSpeed="0.00" departDelay="0.60" arrival="34.10" arrivalLane="39_4" arrivalPos="46.43" arrivalPosLat="0.00" arrivalSpeed="11.41" duration="31.50" routeLength="194.87" waitingTime="3.60" waitingCount="1" stopTime="0.00" timeLoss="14.56" rerouteNo="0" devices="tripinfo_f_1.1 routing_f_1.1 emissions_f_1.1" vType="vehicle.seat.leon" speedFactor="0.83" vaporized="">
        <emissions CO_abs="2834.350529" CO2_abs="103517.884485" HC_abs="15.331155" PMx_abs="2.037099" NOx_abs="44.145320" fuel_abs="33017.965603" electricity_abs="0"/>
    </tripinfo>
    <tripinfo id="f_1.3" depart="7.90" departLane="1_3" departPos="4.31" departPosLat="0.00" departSpeed="0.00" departDelay="1.90" arrival="35.10" arrivalLane="39_4" arrivalPos="46.43" arrivalPosLat="0.00" arrivalSpeed="12.80" duration="27.20" routeLength="194.87" waitingTime="0.00" waitingCount="0" stopTime="0.00" timeLoss="12.02" rerouteNo="0" devices="tripinfo_f_1.3 routing_f_1.3 emissions_f_1.3" vType="vehicle.seat.leon" speedFactor="0.93" vaporized="">
        <emissions CO_abs="2255.754037" CO2_abs="99912.475437" HC_abs="12.627376" PMx_abs="1.949909" NOx_abs="42.534059" fuel_abs="31867.699080" electricity_abs="0"/>
    </tripinfo>
    <tripinfo id="f_1.5" depart="13.20" departLane="1_3" departPos="4.31" departPosLat="0.00" departSpeed="0.00" departDelay="3.20" arrival="36.30" arrivalLane="39_4" arrivalPos="46.43" arrivalPosLat="0.00" arrivalSpeed="12.08" duration="23.10" routeLength="194.87" waitingTime="0.00" waitingCount="0" stopTime="0.00" timeLoss="6.96" rerouteNo="0" devices="tripinfo_f_1.5 routing_f_1.5 emissions_f_1.5" vType="vehicle.seat.leon" speedFactor="0.87" vaporized="">
        <emissions CO_abs="1731.813956" CO2_abs="85791.958073" HC_abs="9.894790" PMx_abs="1.609896" NOx_abs="36.056827" fuel_abs="27363.819022" electricity_abs="0"/>
    </tripinfo>
    <tripinfo id="f_1.6" depart="16.00" departLane="1_3" departPos="4.31" departPosLat="0.00" departSpeed="0.00" departDelay="4.00" arrival="36.90" arrivalLane="39_3" arrivalPos="46.43" arrivalPosLat="-0.00" arrivalSpeed="16.16" duration="20.90" routeLength="194.87" waitingTime="0.00" waitingCount="0" stopTime="0.00" timeLoss="8.97" rerouteNo="0" devices="tripinfo_f_1.6 routing_f_1.6 emissions_f_1.6" vType="vehicle.seat.leon" speedFactor="1.18" vaporized="">
        <emissions CO_abs="2026.759703" CO2_abs="106648.895449" HC_abs="11.763478" PMx_abs="2.108537" NOx_abs="45.372741" fuel_abs="34016.064775" electricity_abs="0"/>
    </tripinfo>
    <tripinfo id="f_1.7" depart="18.70" departLane="1_3" departPos="4.31" departPosLat="0.00" departSpeed="0.00" departDelay="4.70" arrival="39.80" arrivalLane="39_3" arrivalPos="46.43" arrivalPosLat="-0.00" arrivalSpeed="13.96" duration="21.10" routeLength="194.87" waitingTime="0.00" waitingCount="0" stopTime="0.00" timeLoss="7.30" rerouteNo="0" devices="tripinfo_f_1.7 routing_f_1.7 emissions_f_1.7" vType="vehicle.seat.leon" speedFactor="1.02" vaporized="">
        <emissions CO_abs="1822.557708" CO2_abs="94340.270472" HC_abs="10.521396" PMx_abs="1.827073" NOx_abs="39.918152" fuel_abs="30090.240114" electricity_abs="0"/>
    </tripinfo>
    <tripinfo id="f_1.8" depart="21.40" departLane="1_3" departPos="4.31" departPosLat="0.00" departSpeed="0.00" departDelay="5.40" arrival="42.00" arrivalLane="39_4" arrivalPos="46.43" arrivalPosLat="0.00" arrivalSpeed="14.21" duration="20.60" routeLength="194.87" waitingTime="0.00" waitingCount="0" stopTime="0.00" timeLoss="6.95" rerouteNo="0" devices="tripinfo_f_1.8 routing_f_1.8 emissions_f_1.8" vType="vehicle.seat.leon" speedFactor="1.03" vaporized="">
        <emissions CO_abs="1841.317536" CO2_abs="96847.171548" HC_abs="10.679559" PMx_abs="1.901554" NOx_abs="41.142868" fuel_abs="30889.780751" electricity_abs="0"/>
    </tripinfo>
    <tripinfo id="f_2.1" depart="2.60" departLane="-14_3" departPos="4.31" departPosLat="0.00" departSpeed="0.00" departDelay="0.60" arrival="48.10" arrivalLane="-26_4" arrivalPos="61.99" arrivalPosLat="0.00" arrivalSpeed="14.34" duration="45.50" routeLength="206.69" waitingTime="20.90" waitingCount="1" stopTime="0.00" timeLoss="31.26" rerouteNo="0" devices="tripinfo_f_2.1 routing_f_2.1 emissions_f_2.1" vType="vehicle.seat.leon" speedFactor="1.05" vaporized="">
        <emissions CO_abs="5680.903300" CO2_abs="162042.150387" HC_abs="29.675187" PMx_abs="3.486488" NOx_abs="70.714878" fuel_abs="51685.281738" electricity_abs="0"/>
    </tripinfo>
    <tripinfo id="f_2.0" depart="0.00" departLane="-14_3" departPos="4.31" departPosLat="0.00" departSpeed="0.00" departDelay="0.00" arrival="48.20" arrivalLane="-26_3" arrivalPos="61.99" arrivalPosLat="0.00" arrivalSpeed="12.87" duration="48.20" routeLength="206.69" waitingTime="23.20" waitingCount="1" stopTime="0.00" timeLoss="32.33" rerouteNo="0" devices="tripinfo_f_2.0 routing_f_2.0 emissions_f_2.0" vType="vehicle.seat.leon" speedFactor="0.94" vaporized="">
        <emissions CO_abs="5864.614979" CO2_abs="157477.689559" HC_abs="30.378914" PMx_abs="3.371338" NOx_abs="68.596270" fuel_abs="50229.630613" electricity_abs="0"/>
    </tripinfo>
    <tripinfo id="f_2.2" depart="5.20" departLane="-14_3" departPos="4.31" departPosLat="0.00" departSpeed="0.00" departDelay="1.20" arrival="49.20" arrivalLane="-26_3" arrivalPos="61.99" arrivalPosLat="-0.00" arrivalSpeed="14.21" duration="44.00" routeLength="206.69" waitingTime="17.10" waitingCount="1" stopTime="0.00" timeLoss="29.44" rerouteNo="0" devices="tripinfo_f_2.2 routing_f_2.2 emissions_f_2.2" vType="vehicle.seat.leon" speedFactor="1.03" vaporized="">
        <emissions CO_abs="5156.089059" CO2_abs="150880.663709" HC_abs="27.023584" PMx_abs="3.208936" NOx_abs="65.647079" fuel_abs="48125.147892" electricity_abs="0"/>
    </tripinfo>
    <tripinfo id="f_2.3" depart="7.90" departLane="-14_3" departPos="4.31" departPosLat="0.00" departSpeed="0.00" departDelay="1.90" arrival="49.70" arrivalLane="-26_4" arrivalPos="61.99" arrivalPosLat="0.00" arrivalSpeed="12.00" duration="41.80" routeLength="206.69" waitingTime="14.00" waitingCount="1" stopTime="0.00" timeLoss="24.84" rerouteNo="0" devices="tripinfo_f_2.3 routing_f_2.3 emissions_f_2.3" vType="vehicle.seat.leon" speedFactor="0.88" vaporized="">
        <emissions CO_abs="4487.407094" CO2_abs="131090.713082" HC_abs="23.501549" PMx_abs="2.720859" NOx_abs="56.668677" fuel_abs="41812.989520" electricity_abs="0"/>
    </tripinfo>
    <tripinfo id="f_2.4" depart="10.50" departLane="-14_3" departPos="4.31" departPosLat="0.00" departSpeed="0.00" departDelay="2.50" arrival="50.20" arrivalLane="-26_3" arrivalPos="61.99" arrivalPosLat="-0.00" arrivalSpeed="13.85" duration="39.70" routeLength="206.69" waitingTime="12.50" waitingCount="1" stopTime="0.00" timeLoss="24.91" rerouteNo="0" devices="tripinfo_f_2.4 routing_f_2.4 emissions_f_2.4" vType="vehicle.seat.leon" speedFactor="1.01" vaporized="">
        <emissions CO_abs="4462.241637" CO2_abs="140325.738919" HC_abs="23.614434" PMx_abs="2.939632" NOx_abs="60.789113" fuel_abs="44758.368250" electricity_abs="0"/>
    </tripinfo>
    <tripinfo id="f_2.5" depart="13.20" departLane="-14_3" departPos="4.31" departPosLat="0.00" departSpeed="0.00" departDelay="3.20" arrival="50.70" arrivalLane="-26_4" arrivalPos="61.99" arrivalPosLat="0.00" arrivalSpeed="12.74" duration="37.50" routeLength="206.69" waitingTime="9.60" waitingCount="1" stopTime="0.00" timeLoss="21.28" rerouteNo="0" devices="tripinfo_f_2.5 routing_f_2.5 emissions_f_2.5" vType="vehicle.seat.leon" speedFactor="0.92" vaporized="">
        <emissions CO_abs="3891.992259" CO2_abs="125011.940645" HC_abs="20.665129" PMx_abs="2.577382" NOx_abs="53.986811" fuel_abs="39873.860425" electricity_abs="0"/>
    </tripinfo>
    <tripinfo id="f_2.6" depart="15.90" departLane="-14_3" departPos="4.31" departPosLat="0.00" departSpeed="0.00" departDelay="3.90" arrival="51.30" arrivalLane="-26_3" arrivalPos="61.99" arrivalPosLat="-0.00" arrivalSpeed="15.92" duration="35.40" routeLength="206.69" waitingTime="7.60" waitingCount="1" stopTime="0.00" timeLoss="22.42" rerouteNo="0" devices="tripinfo_f_2.6 routing_f_2.6 emissions_f_2.6" vType="vehicle.seat.leon" speedFactor="1.15" vaporized="">
        <emissions CO_abs="3808.982265" CO2_abs="134932.316790" HC_abs="20.529007" PMx_abs="2.767424" NOx_abs="58.063230" fuel_abs="43037.843798" electricity_abs="0"/>
    </tripinfo>
    <tripinfo id="f_2.7" depart="18.60" departLane="-14_3" departPos="4.31" departPosLat="0.00" departSpeed="0.00" departDelay="4.60" arrival="51.70" arrivalLane="-26_4" arrivalPos="61.99" arrivalPosLat="0.00" arrivalSpeed="13.34" duration="33.10" routeLength="206.69" waitingTime="5.10" waitingCount="1" stopTime="0.00" timeLoss="17.81" rerouteNo="0" devices="tripinfo_f_2.7 routing_f_2.7 emissions_f_2.7" vType="vehicle.seat.leon" speedFactor="0.97" vaporized="">
        <emissions CO_abs="3233.127205" CO2_abs="118602.427460" HC_abs="17.510333" PMx_abs="2.393865" NOx_abs="50.878491" fuel_abs="37829.246129" electricity_abs="0"/>
    </tripinfo>
    <tripinfo id="f_2.10" depart="26.50" departLane="-14_3" departPos="4.31" departPosLat="0.00" departSpeed="0.00" departDelay="6.50" arrival="52.80" arrivalLane="-26_4" arrivalPos="61.99" arrivalPosLat="0.00" arrivalSpeed="15.32" duration="26.30" routeLength="206.69" waitingTime="0.00" waitingCount="0" stopTime="0.00" timeLoss="13.50" rerouteNo="0" devices="tripinfo_f_2.10 routing_f_2.10 emissions_f_2.10" vType="vehicle.seat.leon" speedFactor="1.17" vaporized="">
        <emissions CO_abs="2325.043610" CO2_abs="110818.604860" HC_abs="13.194505" PMx_abs="2.172300" NOx_abs="47.118487" fuel_abs="35346.159883" electricity_abs="0"/>
    </tripinfo>
    <tripinfo id="f_2.8" depart="21.30" departLane="-14_3" departPos="4.31" departPosLat="0.00" departSpeed="0.00" departDelay="5.30" arrival="53.00" arrivalLane="-26_3" arrivalPos="61.99" arrivalPosLat="0.00" arrivalSpeed="13.29" duration="31.70" routeLength="206.69" waitingTime="3.20" waitingCount="1" stopTime="0.00" timeLoss="16.10" rerouteNo="0" devices="tripinfo_f_2.8 routing_f_2.8 emissions_f_2.8" vType="vehicle.seat.leon" speedFactor="0.96" vaporized="">
        <emissions CO_abs="2985.768727" CO2_abs="114513.650912" HC_abs="16.272117" PMx_abs="2.290464" NOx_abs="48.990024" fuel_abs="36525.030586" electricity_abs="0"/>
    </tripinfo>
    <tripinfo id="f_2.12" depart="31.80" departLane="-14_3" departPos="4.31" departPosLat="0.00" departSpeed="0.00" departDelay="7.80" arrival="54.00" arrivalLane="-26_4" arrivalPos="61.99" arrivalPosLat="0.00" arrivalSpeed="15.47" duration="22.20" routeLength="206.69" waitingTime="0.00" waitingCount="0" stopTime="0.00" timeLoss="8.87" rerouteNo="0" devices="tripinfo_f_2.12 routing_f_2.12 emissions_f_2.12" vType="vehicle.seat.leon" speedFactor="1.12" vaporized="">
        <emissions CO_abs="1859.905090" CO2_abs="97212.264270" HC_abs="10.757140" PMx_abs="1.890522" NOx_abs="41.119007" fuel_abs="31006.257962" electricity_abs="0"/>
    </tripinfo>
    <tripinfo id="f_2.9" depart="23.90" departLane="-14_3" departPos="4.31" departPosLat="0.00" departSpeed="0.00" departDelay="5.90" arrival="54.20" arrivalLane="-26_3" arrivalPos="61.99" arrivalPosLat="-0.00" arrivalSpeed="13.66" duration="30.30" routeLength="206.69" waitingTime="1.40" waitingCount="1" stopTime="0.00" timeLoss="15.31" rerouteNo="0" devices="tripinfo_f_2.9 routing_f_2.9 emissions_f_2.9" vType="vehicle.seat.leon" speedFactor="1.00" vaporized="">
        <emissions CO_abs="2718.397724" CO2_abs="109863.647542" HC_abs="14.961204" PMx_abs="2.179141" NOx_abs="46.903852" fuel_abs="35041.803483" electricity_abs="0"/>
    </tripinfo>
    <tripinfo id="f_2.11" depart="29.10" departLane="-14_3" departPos="4.31" departPosLat="0.00" departSpeed="0.00" departDelay="7.10" arrival="56.20" arrivalLane="-26_3" arrivalPos="61.99" arrivalPosLat="-0.00" arrivalSpeed="12.31" duration="27.10" routeLength="206.69" waitingTime="0.00" waitingCount="0" stopTime="0.00" timeLoss="10.51" rerouteNo="0" devices="tripinfo_f_2.11 routing_f_2.11 emissions_f_2.11" vType="vehicle.seat.leon" speedFactor="0.90" vaporized="">
        <emissions CO_abs="2127.519487" CO2_abs="96874.409196" HC_abs="11.940559" PMx_abs="1.843461" NOx_abs="40.928599" fuel_abs="30898.702542" electricity_abs="0"/>
    </tripinfo>
    <tripinfo id="f_2.13" depart="34.50" departLane="-14_3" departPos="4.31" departPosLat="0.00" departSpeed="0.00" departDelay="8.50" arrival="57.70" arrivalLane="-26_3" arrivalPos="61.99" arrivalPosLat="0.00" arrivalSpeed="12.40" duration="23.20" routeLength="206.69" waitingTime="0.00" waitingCount="0" stopTime="0.00" timeLoss="6.77" rerouteNo="0" devices="tripinfo_f_2.13 routing_f_2.13 emissions_f_2.13" vType="vehicle.seat.leon" speedFactor="0.91" vaporized="">
        <emissions CO_abs="1702.612729" CO2_abs="86937.668498" HC_abs="9.783839" PMx_abs="1.629828" NOx_abs="36.475469" fuel_abs="27729.221158" electricity_abs="0"/>
    </tripinfo>
    <tripinfo id="f_2.14" depart="37.10" departLane="-14_3" departPos="4.31" departPosLat="0.00" departSpeed="0.00" departDelay="9.10" arrival="58.80" arrivalLane="-26_4" arrivalPos="61.99" arrivalPosLat="0.00" arrivalSpeed="13.34" duration="21.70" routeLength="206.69" waitingTime="0.00" waitingCount="0" stopTime="0.00" timeLoss="6.34" rerouteNo="0" devices="tripinfo_f_2.14 routing_f_2.14 emissions_f_2.14" vType="vehicle.seat.leon" speedFactor="0.97" vaporized="">
        <emissions CO_abs="1688.433855" CO2_abs="90233.254658" HC_abs="9.779027" PMx_abs="1.682868" NOx_abs="37.635362" fuel_abs="28780.333987" electricity_abs="0"/>
    </tripinfo>
    <tripinfo id="f_5.2" depart="14.00" departLane="-28_4" departPos="5.14" departPosLat="0.00" departSpeed="0.00" departDelay="10.00" arrival="62.70" arrivalLane="-0_4" arrivalPos="53.56" arrivalPosLat="0.00" arrivalSpeed="13.76" duration="48.70" routeLength="189.02" waitingTime="25.00" waitingCount="1" stopTime="0.00" timeLoss="34.34" rerouteNo="0" devices="tripinfo_f_5.2 routing_f_5.2 emissions_f_5.2" vType="vehicle.mercedes.coupe" speedFactor="0.99" vaporized="">
        <emissions CO_abs="6259.143535" CO2_abs="163496.268625" HC_abs="32.337072" PMx_abs="3.563169" NOx_abs="71.699946" fuel_abs="52149.370449" electricity_abs="0"/>
    </tripinfo>
    <tripinfo id="f_4.2" depart="11.30" departLane="-28_4" departPos="5.14" departPosLat="0.00" departSpeed="0.00" departDelay="7.30" arrival="63.50" arrivalLane="25_3" arrivalPos="64.03" arrivalPosLat="0.00" arrivalSpeed="15.43" duration="52.20" routeLength="202.19" waitingTime="27.70" waitingCount="1" stopTime="0.00" timeLoss="39.17" rerouteNo="0" devices="tripinfo_f_4.2 routing_f_4.2 emissions_f_4.2" vType="vehicle.mercedes.coupe" speedFactor="1.12" vaporized="">
        <emissions CO_abs="6903.297147" CO2_abs="184691.592452" HC_abs="35.787381" PMx_abs="4.034146" NOx_abs="80.971348" fuel_abs="58909.800183" electricity_abs="0"/>
    </tripinfo>
    <tripinfo id="f_5.3" depart="19.70" departLane="-28_4" departPos="5.14" departPosLat="0.00" departSpeed="0.00" departDelay="13.70" arrival="63.80" arrivalLane="-0_4" arrivalPos="53.56" arrivalPosLat="0.00" arrivalSpeed="15.48" duration="44.10" routeLength="189.02" waitingTime="18.40" waitingCount="1" stopTime="0.00" timeLoss="31.75" rerouteNo="0" devices="tripinfo_f_5.3 routing_f_5.3 emissions_f_5.3" vType="vehicle.mercedes.coupe" speedFactor="1.16" vaporized="">
        <emissions CO_abs="5463.227235" CO2_abs="157760.991127" HC_abs="28.604015" PMx_abs="3.398166" NOx_abs="68.959937" fuel_abs="50319.704942" electricity_abs="0"/>
    </tripinfo>
    <tripinfo id="f_4.3" depart="16.80" departLane="-28_4" departPos="5.14" departPosLat="0.00" departSpeed="0.00" departDelay="10.80" arrival="64.90" arrivalLane="25_3" arrivalPos="64.03" arrivalPosLat="0.00" arrivalSpeed="12.97" duration="48.10" routeLength="202.19" waitingTime="21.10" waitingCount="1" stopTime="0.00" timeLoss="32.51" rerouteNo="0" devices="tripinfo_f_4.3 routing_f_4.3 emissions_f_4.3" vType="vehicle.mercedes.coupe" speedFactor="0.94" vaporized="">
        <emissions CO_abs="5734.058003" CO2_abs="154162.358414" HC_abs="29.727763" PMx_abs="3.308820" NOx_abs="67.298614" fuel_abs="49172.143036" electricity_abs="0"/>
    </tripinfo>
    <tripinfo id="f_5.4" depart="25.40" departLane="-28_4" departPos="5.14" departPosLat="0.00" departSpeed="0.00" departDelay="17.40" arrival="65.90" arrivalLane="-0_4" arrivalPos="53.56" arrivalPosLat="0.00" arrivalSpeed="11.36" duration="40.50" routeLength="189.02" waitingTime="13.20" waitingCount="1" stopTime="0.00" timeLoss="23.23" rerouteNo="0" devices="tripinfo_f_5.4 routing_f_5.4 emissions_f_5.4" vType="vehicle.mercedes.coupe" speedFactor="0.83" vaporized="">
        <emissions CO_abs="4302.745232" CO2_abs="121884.366787" HC_abs="22.444928" PMx_abs="2.532280" NOx_abs="52.767050" fuel_abs="38876.588539" electricity_abs="0"/>
    </tripinfo>
    <tripinfo id="f_4.4" depart="22.50" departLane="-28_4" departPos="5.14" departPosLat="0.00" departSpeed="0.00" departDelay="14.50" arrival="66.10" arrivalLane="25_3" arrivalPos="64.03" arrivalPosLat="-0.00" arrivalSpeed="12.31" duration="43.60" routeLength="202.19" waitingTime="16.10" waitingCount="1" stopTime="0.00" timeLoss="27.22" rerouteNo="0" devices="tripinfo_f_4.4 routing_f_4.4 emissions_f_4.4" vType="vehicle.mercedes.coupe" speedFactor="0.89" vaporized="">
        <emissions CO_abs="4862.288078" CO2_abs="137113.183588" HC_abs="25.350476" PMx_abs="2.870128" NOx_abs="59.412266" fuel_abs="43734.010678" electricity_abs="0"/>
    </tripinfo>
    <tripinfo id="f_5.5" depart="31.10" departLane="-28_4" departPos="5.14" departPosLat="0.00" departSpeed="0.00" departDelay="21.10" arrival="67.00" arrivalLane="-0_4" arrivalPos="53.56" arrivalPosLat="0.00" arrivalSpeed="12.89" duration="35.90" routeLength="189.02" waitingTime="8.50" waitingCount="1" stopTime="0.00" timeLoss="20.58" rerouteNo="0" devices="tripinfo_f_5.5 routing_f_5.5 emissions_f_5.5" vType="vehicle.mercedes.coupe" speedFactor="0.93" vaporized="">
        <emissions CO_abs="3741.670469" CO2_abs="119795.019221" HC_abs="19.855284" PMx_abs="2.465530" NOx_abs="51.753311" fuel_abs="38209.877815" electricity_abs="0"/>
    </tripinfo>
    <tripinfo id="f_4.5" depart="28.30" departLane="-28_4" departPos="5.14" departPosLat="0.00" departSpeed="0.00" departDelay="18.30" arrival="67.20" arrivalLane="25_3" arrivalPos="64.03" arrivalPosLat="0.00" arrivalSpeed="14.46" duration="38.90" routeLength="202.19" waitingTime="11.40" waitingCount="1" stopTime="0.00" timeLoss="26.01" rerouteNo="0" devices="tripinfo_f_4.5 routing_f_4.5 emissions_f_4.5" vType="vehicle.mercedes.coupe" speedFactor="1.13" vaporized="">
        <emissions CO_abs="4366.117845" CO2_abs="138586.479490" HC_abs="23.147383" PMx_abs="2.914500" NOx_abs="60.170273" fuel_abs="44203.571668" electricity_abs="0"/>
    </tripinfo>
    <tripinfo id="f_5.6" depart="37.00" departLane="-28_4" departPos="5.14" departPosLat="0.00" departSpeed="0.00" departDelay="25.00" arrival="68.10" arrivalLane="-0_4" arrivalPos="53.56" arrivalPosLat="0.00" arrivalSpeed="13.81" duration="31.10" routeLength="189.02" waitingTime="3.70" waitingCount="1" stopTime="0.00" timeLoss="16.71" rerouteNo="0" devices="tripinfo_f_5.6 routing_f_5.6 emissions_f_5.6" vType="vehicle.mercedes.coupe" speedFactor="0.99" vaporized="">
        <emissions CO_abs="3048.263454" CO2_abs="113415.313623" HC_abs="16.546004" PMx_abs="2.282047" NOx_abs="48.672531" fuel_abs="36174.747611" electricity_abs="0"/>
    </tripinfo>
    <tripinfo id="f_4.6" depart="34.00" departLane="-28_4" departPos="5.14" departPosLat="0.00" departSpeed="0.00" departDelay="22.00" arrival="68.30" arrivalLane="25_3" arrivalPos="64.03" arrivalPosLat="0.00" arrivalSpeed="15.84" duration="34.30" routeLength="202.19" waitingTime="6.30" waitingCount="1" stopTime="0.00" timeLoss="21.82" rerouteNo="0" devices="tripinfo_f_4.6 routing_f_4.6 emissions_f_4.6" vType="vehicle.mercedes.coupe" speedFactor="1.17" vaporized="">
        <emissions CO_abs="3619.952546" CO2_abs="129395.042566" HC_abs="19.531608" PMx_abs="2.648125" NOx_abs="55.684676" fuel_abs="41271.663202" electricity_abs="0"/>
    </tripinfo>
    <tripinfo id="f_4.7" depart="39.70" departLane="-28_4" departPos="5.14" departPosLat="0.00" departSpeed="0.00" departDelay="25.70" arrival="69.70" arrivalLane="25_3" arrivalPos="64.03" arrivalPosLat="-0.00" arrivalSpeed="15.11" duration="30.00" routeLength="202.19" waitingTime="1.70" waitingCount="1" stopTime="0.00" timeLoss="16.71" rerouteNo="0" devices="tripinfo_f_4.7 routing_f_4.7 emissions_f_4.7" vType="vehicle.mercedes.coupe" speedFactor="1.10" vaporized="">
        <emissions CO_abs="2864.595798" CO2_abs="115023.454628" HC_abs="15.752004" PMx_abs="2.304796" NOx_abs="49.235627" fuel_abs="36687.547862" electricity_abs="0"/>
    </tripinfo>
    <tripinfo id="f_5.7" depart="42.50" departLane="-28_4" departPos="5.14" departPosLat="0.00" departSpeed="0.00" departDelay="28.50" arrival="69.90" arrivalLane="-0_4" arrivalPos="53.56" arrivalPosLat="0.00" arrivalSpeed="12.42" duration="27.40" routeLength="189.02" waitingTime="0.00" waitingCount="0" stopTime="0.00" timeLoss="11.58" rerouteNo="0" devices="tripinfo_f_5.7 routing_f_5.7 emissions_f_5.7" vType="vehicle.mercedes.coupe" speedFactor="0.90" vaporized="">
        <emissions CO_abs="2225.663819" CO2_abs="95089.644894" HC_abs="12.358078" PMx_abs="1.813754" NOx_abs="40.234930" fuel_abs="30329.522395" electricity_abs="0"/>
    </tripinfo>
    <tripinfo id="f_5.8" depart="48.10" departLane="-28_4" departPos="5.14" departPosLat="0.00" departSpeed="0.00" departDelay="32.10" arrival="71.00" arrivalLane="-0_4" arrivalPos="53.56" arrivalPosLat="0.00" arrivalSpeed="14.36" duration="22.90" routeLength="189.02" waitingTime="0.00" waitingCount="0" stopTime="0.00" timeLoss="9.22" rerouteNo="0" devices="tripinfo_f_5.8 routing_f_5.8 emissions_f_5.8" vType="vehicle.mercedes.coupe" speedFactor="1.04" vaporized="">
        <emissions CO_abs="1850.668250" CO2_abs="90630.687024" HC_abs="10.552178" PMx_abs="1.744602" NOx_abs="38.402029" fuel_abs="28907.118771" electricity_abs="0"/>
    </tripinfo>
    <tripinfo id="f_4.8" depart="45.30" departLane="-28_4" departPos="5.14" departPosLat="0.00" departSpeed="0.00" departDelay="29.30" arrival="71.30" arrivalLane="25_3" arrivalPos="64.03" arrivalPosLat="-0.00" arrivalSpeed="14.31" duration="26.00" routeLength="202.19" waitingTime="0.00" waitingCount="0" stopTime="0.00" timeLoss="11.95" rerouteNo="0" devices="tripinfo_f_4.8 routing_f_4.8 emissions_f_4.8" vType="vehicle.mercedes.coupe" speedFactor="1.04" vaporized="">
        <emissions CO_abs="2141.479229" CO2_abs="99968.367295" HC_abs="12.090826" PMx_abs="1.927553" NOx_abs="42.300059" fuel_abs="31885.483037" electricity_abs="0"/>
    </tripinfo>
    <tripinfo id="f_4.9" depart="50.90" departLane="-28_4" departPos="5.14" departPosLat="0.00" departSpeed="0.00" departDelay="32.90" arrival="73.80" arrivalLane="25_3" arrivalPos="64.03" arrivalPosLat="0.00" arrivalSpeed="12.14" duration="22.90" routeLength="202.19" waitingTime="0.00" waitingCount="0" stopTime="0.00" timeLoss="6.30" rerouteNo="0" devices="tripinfo_f_4.9 routing_f_4.9 emissions_f_4.9" vType="vehicle.mercedes.coupe" speedFactor="0.88" vaporized="">
        <emissions CO_abs="1631.377854" CO2_abs="82211.730348" HC_abs="9.351861" PMx_abs="1.534121" NOx_abs="34.480127" fuel_abs="26221.878758" electricity_abs="0"/>
    </tripinfo>
    <tripinfo id="f_5.9" depart="53.70" departLane="-28_4" departPos="5.14" departPosLat="0.00" departSpeed="0.00" departDelay="35.70" arrival="74.90" arrivalLane="-0_4" arrivalPos="53.56" arrivalPosLat="0.00" arrivalSpeed="11.62" duration="21.20" routeLength="189.02" waitingTime="0.00" waitingCount="0" stopTime="0.00" timeLoss="4.42" rerouteNo="0" devices="tripinfo_f_5.9 routing_f_5.9 emissions_f_5.9" vType="vehicle.mercedes.coupe" speedFactor="0.85" vaporized="">
        <emissions CO_abs="1480.419144" CO2_abs="75975.294158" HC_abs="8.518190" PMx_abs="1.397521" NOx_abs="31.699651" fuel_abs="24232.742123" electricity_abs="0"/>
    </tripinfo>