<?xml version="1.0" encoding="UTF-8"?>

<!-- generated on 2023-09-10 20:26:57 by Eclipse SUMO sumo Version 1.17.0
<configuration xmlns:xsi="http://www.w3.org/2001/XMLSchema-instance" xsi:noNamespaceSchemaLocation="http://sumo.dlr.de/xsd/sumoConfiguration.xsd">

    <input>
        <net-file value="configs/Town05/Town05.net.xml"/>
        <route-files value="configs/Town05/Town05.rou.xml"/>
    </input>

    <output>
        <queue-output value="queue.xml"/>
        <tripinfo-output value="tripinfo.xml"/>
        <collision-output value="collision.xml"/>
    </output>

    <time>
        <step-length value="0.1"/>
    </time>

    <processing>
        <lateral-resolution value="0.25"/>
        <collision.check-junctions value="true"/>
    </processing>

    <emissions>
        <device.emissions.probability value="1.0"/>
    </emissions>

    <traci_server>
        <remote-port value="3001"/>
        <num-clients value="1"/>
    </traci_server>

    <gui_only>
        <gui-settings-file value="configs/Town05/viewsettings.xml"/>
    </gui_only>

</configuration>
-->

<tripinfos xmlns:xsi="http://www.w3.org/2001/XMLSchema-instance" xsi:noNamespaceSchemaLocation="http://sumo.dlr.de/xsd/tripinfo_file.xsd">
    <tripinfo id="f_1.0" depart="0.00" departLane="1_3" departPos="4.31" departPosLat="0.00" departSpeed="0.00" departDelay="0.00" arrival="19.90" arrivalLane="39_3" arrivalPos="46.43" arrivalPosLat="0.00" arrivalSpeed="14.62" duration="19.90" routeLength="194.87" waitingTime="0.00" waitingCount="0" stopTime="0.00" timeLoss="6.66" rerouteNo="0" devices="tripinfo_f_1.0 routing_f_1.0 emissions_f_1.0" vType="vehicle.seat.leon" speedFactor="1.06" vaporized="">
        <emissions CO_abs="1834.319503" CO2_abs="99494.518269" HC_abs="10.678157" PMx_abs="1.964605" NOx_abs="42.243379" fuel_abs="31734.112467" electricity_abs="0"/>
    </tripinfo>
    <tripinfo id="f_1.1" depart="2.50" departLane="1_3" departPos="4.31" departPosLat="0.00" departSpeed="0.00" departDelay="0.50" arrival="24.00" arrivalLane="39_3" arrivalPos="46.43" arrivalPosLat="0.00" arrivalSpeed="11.47" duration="21.50" routeLength="194.87" waitingTime="0.00" waitingCount="0" stopTime="0.00" timeLoss="4.58" rerouteNo="0" devices="tripinfo_f_1.1 routing_f_1.1 emissions_f_1.1" vType="vehicle.seat.leon" speedFactor="0.83" vaporized="">
        <emissions CO_abs="1530.773028" CO2_abs="79939.751826" HC_abs="8.832196" PMx_abs="1.483938" NOx_abs="33.422168" fuel_abs="25497.197341" electricity_abs="0"/>
    </tripinfo>
    <tripinfo id="f_1.2" depart="5.00" departLane="1_3" departPos="4.31" departPosLat="0.00" departSpeed="0.00" departDelay="1.00" arrival="25.70" arrivalLane="39_3" arrivalPos="46.43" arrivalPosLat="-0.00" arrivalSpeed="15.08" duration="20.70" routeLength="194.87" waitingTime="0.00" waitingCount="0" stopTime="0.00" timeLoss="7.78" rerouteNo="0" devices="tripinfo_f_1.2 routing_f_1.2 emissions_f_1.2" vType="vehicle.seat.leon" speedFactor="1.09" vaporized="">
        <emissions CO_abs="1861.697736" CO2_abs="98480.202912" HC_abs="10.796999" PMx_abs="1.950837" NOx_abs="41.949175" fuel_abs="31410.612699" electricity_abs="0"/>
    </tripinfo>
    <tripinfo id="f_1.3" depart="7.50" departLane="1_3" departPos="4.31" departPosLat="0.00" departSpeed="0.00" departDelay="1.50" arrival="28.40" arrivalLane="39_3" arrivalPos="46.43" arrivalPosLat="-0.00" arrivalSpeed="12.82" duration="20.90" routeLength="194.87" waitingTime="0.00" waitingCount="0" stopTime="0.00" timeLoss="5.75" rerouteNo="0" devices="tripinfo_f_1.3 routing_f_1.3 emissions_f_1.3" vType="vehicle.seat.leon" speedFactor="0.93" vaporized="">
        <emissions CO_abs="1671.353436" CO2_abs="88135.414650" HC_abs="9.664388" PMx_abs="1.696076" NOx_abs="37.226364" fuel_abs="28111.164168" electricity_abs="0"/>
    </tripinfo>
    <tripinfo id="f_2.1" depart="2.50" departLane="-14_3" departPos="4.31" departPosLat="0.00" departSpeed="0.00" departDelay="0.50" arrival="32.00" arrivalLane="-26_4" arrivalPos="61.99" arrivalPosLat="0.00" arrivalSpeed="14.40" duration="29.50" routeLength="206.69" waitingTime="2.70" waitingCount="1" stopTime="0.00" timeLoss="15.21" rerouteNo="0" devices="tripinfo_f_2.1 routing_f_2.1 emissions_f_2.1" vType="vehicle.seat.leon" speedFactor="1.05" vaporized="">
        <emissions CO_abs="2799.776784" CO2_abs="115206.413302" HC_abs="15.461286" PMx_abs="2.363906" NOx_abs="49.626979" fuel_abs="36745.796944" electricity_abs="0"/>
    </tripinfo>
    <tripinfo id="f_2.0" depart="0.00" departLane="-14_3" departPos="4.31" departPosLat="0.00" departSpeed="0.00" departDelay="0.00" arrival="32.20" arrivalLane="-26_3" arrivalPos="61.99" arrivalPosLat="0.00" arrivalSpeed="12.92" duration="32.20" routeLength="206.69" waitingTime="8.10" waitingCount="1" stopTime="0.00" timeLoss="16.34" rerouteNo="0" devices="tripinfo_f_2.0 routing_f_2.0 emissions_f_2.0" vType="vehicle.seat.leon" speedFactor="0.94" vaporized="">
        <emissions CO_abs="3293.721464" CO2_abs="116827.430989" HC_abs="17.727803" PMx_abs="2.375993" NOx_abs="50.113704" fuel_abs="37263.150417" electricity_abs="0"/>
    </tripinfo>
    <tripinfo id="f_2.2" depart="5.00" departLane="-14_3" departPos="4.31" departPosLat="0.00" departSpeed="0.00" departDelay="1.00" arrival="33.30" arrivalLane="-26_4" arrivalPos="61.99" arrivalPosLat="0.00" arrivalSpeed="14.19" duration="28.30" routeLength="206.69" waitingTime="0.00" waitingCount="0" stopTime="0.00" timeLoss="13.77" rerouteNo="0" devices="tripinfo_f_2.2 routing_f_2.2 emissions_f_2.2" vType="vehicle.seat.leon" speedFactor="1.03" vaporized="">
        <emissions CO_abs="2354.569269" CO2_abs="104767.308635" HC_abs="13.200654" PMx_abs="2.111176" NOx_abs="44.918392" fuel_abs="33416.102839" electricity_abs="0"/>
    </tripinfo>
    <tripinfo id="f_2.3" depart="7.50" departLane="-14_3" departPos="4.31" departPosLat="0.00" departSpeed="0.00" departDelay="1.50" arrival="33.80" arrivalLane="-26_3" arrivalPos="61.99" arrivalPosLat="-0.00" arrivalSpeed="12.19" duration="26.30" routeLength="206.69" waitingTime="0.00" waitingCount="0" stopTime="0.00" timeLoss="9.34" rerouteNo="0" devices="tripinfo_f_2.3 routing_f_2.3 emissions_f_2.3" vType="vehicle.seat.leon" speedFactor="0.88" vaporized="">
        <emissions CO_abs="1788.091378" CO2_abs="85073.800768" HC_abs="10.125145" PMx_abs="1.600579" NOx_abs="35.778337" fuel_abs="27134.798024" electricity_abs="0"/>
    </tripinfo>
    <tripinfo id="f_2.4" depart="10.00" departLane="-14_3" departPos="4.31" departPosLat="0.00" departSpeed="0.00" departDelay="2.00" arrival="35.20" arrivalLane="-26_3" arrivalPos="61.99" arrivalPosLat="-0.00" arrivalSpeed="13.98" duration="25.20" routeLength="206.69" waitingTime="0.00" waitingCount="0" stopTime="0.00" timeLoss="10.46" rerouteNo="0" devices="tripinfo_f_2.4 routing_f_2.4 emissions_f_2.4" vType="vehicle.seat.leon" speedFactor="1.01" vaporized="">
        <emissions CO_abs="1901.180119" CO2_abs="92349.627666" HC_abs="10.812046" PMx_abs="1.774572" NOx_abs="39.058801" fuel_abs="29455.399733" electricity_abs="0"/>
    </tripinfo>
    <tripinfo id="f_2.5" depart="12.50" departLane="-14_3" departPos="4.31" departPosLat="0.00" departSpeed="0.00" departDelay="2.50" arrival="36.60" arrivalLane="-26_4" arrivalPos="61.99" arrivalPosLat="0.00" arrivalSpeed="12.73" duration="24.10" routeLength="206.69" waitingTime="0.00" waitingCount="0" stopTime="0.00" timeLoss="7.83" rerouteNo="0" devices="tripinfo_f_2.5 routing_f_2.5 emissions_f_2.5" vType="vehicle.seat.leon" speedFactor="0.92" vaporized="">
        <emissions CO_abs="1725.929959" CO2_abs="87318.244998" HC_abs="9.882320" PMx_abs="1.644326" NOx_abs="36.672620" fuel_abs="27850.607997" electricity_abs="0"/>
    </tripinfo>
    <tripinfo id="f_2.6" depart="15.00" departLane="-14_3" departPos="4.31" departPosLat="0.00" departSpeed="0.00" departDelay="3.00" arrival="37.00" arrivalLane="-26_3" arrivalPos="61.99" arrivalPosLat="-0.00" arrivalSpeed="15.94" duration="22.00" routeLength="206.69" waitingTime="0.00" waitingCount="0" stopTime="0.00" timeLoss="9.03" rerouteNo="0" devices="tripinfo_f_2.6 routing_f_2.6 emissions_f_2.6" vType="vehicle.seat.leon" speedFactor="1.15" vaporized="">
        <emissions CO_abs="1848.036240" CO2_abs="98826.785467" HC_abs="10.729698" PMx_abs="1.936369" NOx_abs="41.872172" fuel_abs="31521.170761" electricity_abs="0"/>
    </tripinfo>
    <tripinfo id="f_2.7" depart="17.50" departLane="-14_3" departPos="4.31" departPosLat="0.00" departSpeed="0.00" departDelay="3.50" arrival="39.70" arrivalLane="-26_3" arrivalPos="61.99" arrivalPosLat="-0.00" arrivalSpeed="13.46" duration="22.20" routeLength="206.69" waitingTime="0.00" waitingCount="0" stopTime="0.00" timeLoss="6.87" rerouteNo="0" devices="tripinfo_f_2.7 routing_f_2.7 emissions_f_2.7" vType="vehicle.seat.leon" speedFactor="0.97" vaporized="">
        <emissions CO_abs="1671.780277" CO2_abs="88500.366363" HC_abs="9.679801" PMx_abs="1.678086" NOx_abs="37.212041" fuel_abs="28227.593058" electricity_abs="0"/>
    </tripinfo>
    <tripinfo id="f_2.8" depart="20.00" departLane="-14_3" departPos="4.31" departPosLat="0.00" departSpeed="0.00" departDelay="4.00" arrival="41.80" arrivalLane="-26_3" arrivalPos="61.99" arrivalPosLat="0.00" arrivalSpeed="13.17" duration="21.80" routeLength="206.69" waitingTime="0.00" waitingCount="0" stopTime="0.00" timeLoss="6.22" rerouteNo="0" devices="tripinfo_f_2.8 routing_f_2.8 emissions_f_2.8" vType="vehicle.seat.leon" speedFactor="0.96" vaporized="">
        <emissions CO_abs="1634.190416" CO2_abs="86926.941568" HC_abs="9.483995" PMx_abs="1.661379" NOx_abs="36.631739" fuel_abs="27725.723812" electricity_abs="0"/>
    </tripinfo>
    <tripinfo id="f_2.9" depart="22.50" departLane="-14_3" departPos="4.31" departPosLat="0.00" departSpeed="0.00" departDelay="4.50" arrival="44.00" arrivalLane="-26_3" arrivalPos="61.99" arrivalPosLat="-0.00" arrivalSpeed="13.78" duration="21.50" routeLength="206.69" waitingTime="0.00" waitingCount="0" stopTime="0.00" timeLoss="6.52" rerouteNo="0" devices="tripinfo_f_2.9 routing_f_2.9 emissions_f_2.9" vType="vehicle.seat.leon" speedFactor="1.00" vaporized="">
        <emissions CO_abs="1686.076014" CO2_abs="91204.503468" HC_abs="9.806919" PMx_abs="1.745808" NOx_abs="38.400749" fuel_abs="29090.050432" electricity_abs="0"/>
    </tripinfo>
    <tripinfo id="f_1.5" depart="12.50" departLane="1_3" departPos="4.31" departPosLat="0.00" departSpeed="0.00" departDelay="2.50" arrival="46.40" arrivalLane="39_4" arrivalPos="46.43" arrivalPosLat="0.00" arrivalSpeed="12.02" duration="33.90" routeLength="194.87" waitingTime="6.20" waitingCount="1" stopTime="0.00" timeLoss="17.80" rerouteNo="0" devices="tripinfo_f_1.5 routing_f_1.5 emissions_f_1.5" vType="vehicle.seat.leon" speedFactor="0.87" vaporized="">
        <emissions CO_abs="3218.584055" CO2_abs="112176.816387" HC_abs="17.283719" PMx_abs="2.280627" NOx_abs="48.271547" fuel_abs="35779.822732" electricity_abs="0"/>
    </tripinfo>
    <tripinfo id="f_1.4" depart="10.00" departLane="1_3" departPos="4.31" departPosLat="0.00" departSpeed="0.00" departDelay="2.00" arrival="46.50" arrivalLane="39_3" arrivalPos="46.43" arrivalPosLat="-0.00" arrivalSpeed="14.08" duration="36.50" routeLength="194.87" waitingTime="12.00" waitingCount="1" stopTime="0.00" timeLoss="22.71" rerouteNo="0" devices="tripinfo_f_1.4 routing_f_1.4 emissions_f_1.4" vType="vehicle.seat.leon" speedFactor="1.02" vaporized="">
        <emissions CO_abs="4256.246977" CO2_abs="136683.593343" HC_abs="22.608483" PMx_abs="2.889416" NOx_abs="59.466756" fuel_abs="43596.575922" electricity_abs="0"/>
    </tripinfo>
    <tripinfo id="f_1.6" depart="15.00" departLane="1_3" departPos="4.31" departPosLat="0.00" departSpeed="0.00" departDelay="3.00" arrival="47.80" arrivalLane="39_3" arrivalPos="46.43" arrivalPosLat="-0.00" arrivalSpeed="16.01" duration="32.80" routeLength="194.87" waitingTime="3.30" waitingCount="1" stopTime="0.00" timeLoss="20.81" rerouteNo="0" devices="tripinfo_f_1.6 routing_f_1.6 emissions_f_1.6" vType="vehicle.seat.leon" speedFactor="1.18" vaporized="">
        <emissions CO_abs="3275.851446" CO2_abs="123939.209082" HC_abs="17.856245" PMx_abs="2.587057" NOx_abs="53.796188" fuel_abs="39531.290147" electricity_abs="0"/>
    </tripinfo>
    <tripinfo id="f_1.9" depart="22.40" departLane="1_3" departPos="4.31" departPosLat="0.00" departSpeed="0.00" departDelay="4.40" arrival="47.80" arrivalLane="39_4" arrivalPos="46.43" arrivalPosLat="0.00" arrivalSpeed="14.33" duration="25.40" routeLength="194.87" waitingTime="0.00" waitingCount="0" stopTime="0.00" timeLoss="12.42" rerouteNo="0" devices="tripinfo_f_1.9 routing_f_1.9 emissions_f_1.9" vType="vehicle.seat.leon" speedFactor="1.09" vaporized="">
        <emissions CO_abs="2239.268402" CO2_abs="105492.609475" HC_abs="12.694291" PMx_abs="2.109350" NOx_abs="45.203507" fuel_abs="33647.371617" electricity_abs="0"/>
    </tripinfo>
    <tripinfo id="f_1.7" depart="17.50" departLane="1_3" departPos="4.31" departPosLat="0.00" departSpeed="0.00" departDelay="3.50" arrival="49.00" arrivalLane="39_3" arrivalPos="46.43" arrivalPosLat="-0.00" arrivalSpeed="14.07" duration="31.50" routeLength="194.87" waitingTime="1.30" waitingCount="1" stopTime="0.00" timeLoss="17.75" rerouteNo="0" devices="tripinfo_f_1.7 routing_f_1.7 emissions_f_1.7" vType="vehicle.seat.leon" speedFactor="1.02" vaporized="">
        <emissions CO_abs="2753.103791" CO2_abs="105935.630882" HC_abs="15.025471" PMx_abs="2.155718" NOx_abs="45.621007" fuel_abs="33788.951986" electricity_abs="0"/>
    </tripinfo>
    <tripinfo id="f_1.8" depart="19.90" departLane="1_3" departPos="4.31" departPosLat="0.00" departSpeed="0.00" departDelay="3.90" arrival="49.10" arrivalLane="39_4" arrivalPos="46.43" arrivalPosLat="0.00" arrivalSpeed="14.21" duration="29.20" routeLength="194.87" waitingTime="0.00" waitingCount="0" stopTime="0.00" timeLoss="15.49" rerouteNo="0" devices="tripinfo_f_1.8 routing_f_1.8 emissions_f_1.8" vType="vehicle.seat.leon" speedFactor="1.03" vaporized="">
        <emissions CO_abs="2197.021496" CO2_abs="95649.000649" HC_abs="12.258313" PMx_abs="1.886682" NOx_abs="40.839168" fuel_abs="30507.838342" electricity_abs="0"/>
    </tripinfo>
    <tripinfo id="f_1.11" depart="27.40" departLane="1_3" departPos="4.31" departPosLat="0.00" departSpeed="0.00" departDelay="5.40" arrival="50.80" arrivalLane="39_3" arrivalPos="46.43" arrivalPosLat="-0.00" arrivalSpeed="13.73" duration="23.40" routeLength="194.87" waitingTime="0.00" waitingCount="0" stopTime="0.00" timeLoss="9.23" rerouteNo="0" devices="tripinfo_f_1.11 routing_f_1.11 emissions_f_1.11" vType="vehicle.seat.leon" speedFactor="1.00" vaporized="">
        <emissions CO_abs="1873.208427" CO2_abs="92874.625591" HC_abs="10.701061" PMx_abs="1.807191" NOx_abs="39.453267" fuel_abs="29622.796563" electricity_abs="0"/>
    </tripinfo>
    <tripinfo id="f_1.10" depart="24.90" departLane="1_3" departPos="4.31" departPosLat="0.00" departSpeed="0.00" departDelay="4.90" arrival="50.90" arrivalLane="39_4" arrivalPos="46.43" arrivalPosLat="0.00" arrivalSpeed="11.82" duration="26.00" routeLength="194.87" waitingTime="0.00" waitingCount="0" stopTime="0.00" timeLoss="9.53" rerouteNo="0" devices="tripinfo_f_1.10 routing_f_1.10 emissions_f_1.10" vType="vehicle.seat.leon" speedFactor="0.85" vaporized="">
        <emissions CO_abs="1990.889868" CO2_abs="91661.608985" HC_abs="11.222072" PMx_abs="1.780135" NOx_abs="38.991954" fuel_abs="29235.991822" electricity_abs="0"/>
    </tripinfo>
    <tripinfo id="f_1.12" depart="29.90" departLane="1_3" departPos="4.31" departPosLat="0.00" departSpeed="0.00" departDelay="5.90" arrival="52.50" arrivalLane="39_3" arrivalPos="46.43" arrivalPosLat="-0.00" arrivalSpeed="14.91" duration="22.60" routeLength="194.87" waitingTime="0.00" waitingCount="0" stopTime="0.00" timeLoss="9.56" rerouteNo="0" devices="tripinfo_f_1.12 routing_f_1.12 emissions_f_1.12" vType="vehicle.seat.leon" speedFactor="1.08" vaporized="">
        <emissions CO_abs="1829.784633" CO2_abs="93087.561320" HC_abs="10.500812" PMx_abs="1.793509" NOx_abs="39.351689" fuel_abs="29690.705556" electricity_abs="0"/>
    </tripinfo>
    <tripinfo id="f_1.13" depart="32.30" departLane="1_3" departPos="4.31" departPosLat="0.00" departSpeed="0.00" departDelay="6.30" arrival="55.10" arrivalLane="39_3" arrivalPos="46.43" arrivalPosLat="-0.00" arrivalSpeed="12.14" duration="22.80" routeLength="194.87" waitingTime="0.00" waitingCount="0" stopTime="0.00" timeLoss="6.90" rerouteNo="0" devices="tripinfo_f_1.13 routing_f_1.13 emissions_f_1.13" vType="vehicle.seat.leon" speedFactor="0.88" vaporized="">
        <emissions CO_abs="1643.060100" CO2_abs="82458.599080" HC_abs="9.406190" PMx_abs="1.537091" NOx_abs="34.607076" fuel_abs="26300.621873" electricity_abs="0"/>
    </tripinfo>
    <tripinfo id="f_1.14" depart="34.80" departLane="1_3" departPos="4.31" departPosLat="0.00" departSpeed="0.00" departDelay="6.80" arrival="56.70" arrivalLane="39_3" arrivalPos="46.43" arrivalPosLat="-0.00" arrivalSpeed="14.17" duration="21.90" routeLength="194.87" waitingTime="0.00" waitingCount="0" stopTime="0.00" timeLoss="8.14" rerouteNo="0" devices="tripinfo_f_1.14 routing_f_1.14 emissions_f_1.14" vType="vehicle.seat.leon" speedFactor="1.02" vaporized="">
        <emissions CO_abs="1762.440566" CO2_abs="90278.853307" HC_abs="10.144728" PMx_abs="1.749471" NOx_abs="38.273684" fuel_abs="28794.838062" electricity_abs="0"/>
    </tripinfo>
    <tripinfo id="f_5.0" depart="2.60" departLane="-28_4" departPos="5.14" departPosLat="0.00" departSpeed="0.00" departDelay="2.60" arrival="61.10" arrivalLane="-0_4" arrivalPos="53.56" arrivalPosLat="0.00" arrivalSpeed="14.25" duration="58.50" routeLength="189.02" waitingTime="36.50" waitingCount="1" stopTime="0.00" timeLoss="44.64" rerouteNo="0" devices="tripinfo_f_5.0 routing_f_5.0 emissions_f_5.0" vType="vehicle.mercedes.coupe" speedFactor="1.03" vaporized="">
        <emissions CO_abs="8006.852454" CO2_abs="193547.222209" HC_abs="40.972798" PMx_abs="4.325716" NOx_abs="85.385056" fuel_abs="61734.796879" electricity_abs="0"/>
    </tripinfo>
    <tripinfo id="f_4.0" depart="0.00" departLane="-28_4" departPos="5.14" departPosLat="0.00" departSpeed="0.00" departDelay="0.00" arrival="62.00" arrivalLane="25_3" arrivalPos="64.03" arrivalPosLat="0.00" arrivalSpeed="14.95" duration="62.00" routeLength="202.19" waitingTime="39.20" waitingCount="1" stopTime="0.00" timeLoss="48.50" rerouteNo="0" devices="tripinfo_f_4.0 routing_f_4.0 emissions_f_4.0" vType="vehicle.mercedes.coupe" speedFactor="1.08" vaporized="">
        <emissions CO_abs="8586.174002" CO2_abs="207808.006582" HC_abs="43.969006" PMx_abs="4.688777" NOx_abs="91.984865" fuel_abs="66283.434997" electricity_abs="0"/>
    </tripinfo>
    <tripinfo id="f_5.1" depart="7.90" departLane="-28_4" departPos="5.14" departPosLat="0.00" departSpeed="0.00" departDelay="5.90" arrival="63.40" arrivalLane="-0_4" arrivalPos="53.56" arrivalPosLat="0.00" arrivalSpeed="11.81" duration="55.50" routeLength="189.02" waitingTime="28.00" waitingCount="1" stopTime="0.00" timeLoss="38.82" rerouteNo="0" devices="tripinfo_f_5.1 routing_f_5.1 emissions_f_5.1" vType="vehicle.mercedes.coupe" speedFactor="0.86" vaporized="">
        <emissions CO_abs="6675.256011" CO2_abs="159975.597777" HC_abs="34.143312" PMx_abs="3.497362" NOx_abs="70.229152" fuel_abs="51026.743685" electricity_abs="0"/>
    </tripinfo>
    <tripinfo id="f_4.1" depart="5.20" departLane="-28_4" departPos="5.14" departPosLat="0.00" departSpeed="0.00" departDelay="3.20" arrival="63.70" arrivalLane="25_3" arrivalPos="64.03" arrivalPosLat="0.00" arrivalSpeed="12.97" duration="58.50" routeLength="202.19" waitingTime="31.00" waitingCount="1" stopTime="0.00" timeLoss="42.98" rerouteNo="0" devices="tripinfo_f_4.1 routing_f_4.1 emissions_f_4.1" vType="vehicle.mercedes.coupe" speedFactor="0.94" vaporized="">
        <emissions CO_abs="7286.470913" CO2_abs="176075.964012" HC_abs="37.281126" PMx_abs="3.895546" NOx_abs="77.480926" fuel_abs="56162.121807" electricity_abs="0"/>
    </tripinfo>
    <tripinfo id="f_5.2" depart="13.20" departLane="-28_4" departPos="5.14" departPosLat="0.00" departSpeed="0.00" departDelay="9.20" arrival="64.80" arrivalLane="-0_4" arrivalPos="53.56" arrivalPosLat="0.00" arrivalSpeed="13.72" duration="51.60" routeLength="189.02" waitingTime="23.80" waitingCount="1" stopTime="0.00" timeLoss="37.20" rerouteNo="0" devices="tripinfo_f_5.2 routing_f_5.2 emissions_f_5.2" vType="vehicle.mercedes.coupe" speedFactor="0.99" vaporized="">
        <emissions CO_abs="6273.677157" CO2_abs="161980.660090" HC_abs="32.377330" PMx_abs="3.543310" NOx_abs="71.172718" fuel_abs="51665.976022" electricity_abs="0"/>
    </tripinfo>
    <tripinfo id="f_4.2" depart="10.60" departLane="-28_4" departPos="5.14" departPosLat="0.00" departSpeed="0.00" departDelay="6.60" arrival="65.10" arrivalLane="25_3" arrivalPos="64.03" arrivalPosLat="0.00" arrivalSpeed="15.20" duration="54.50" routeLength="202.19" waitingTime="26.60" waitingCount="1" stopTime="0.00" timeLoss="41.54" rerouteNo="0" devices="tripinfo_f_4.2 routing_f_4.2 emissions_f_4.2" vType="vehicle.mercedes.coupe" speedFactor="1.12" vaporized="">
        <emissions CO_abs="6821.029336" CO2_abs="177594.572682" HC_abs="35.242271" PMx_abs="3.913080" NOx_abs="78.107743" fuel_abs="56646.188895" electricity_abs="0"/>
    </tripinfo>
    <tripinfo id="f_5.3" depart="18.40" departLane="-28_4" departPos="5.14" departPosLat="0.00" departSpeed="0.00" departDelay="12.40" arrival="66.10" arrivalLane="-0_4" arrivalPos="53.56" arrivalPosLat="0.00" arrivalSpeed="15.57" duration="47.70" routeLength="189.02" waitingTime="19.60" waitingCount="1" stopTime="0.00" timeLoss="35.40" rerouteNo="0" devices="tripinfo_f_5.3 routing_f_5.3 emissions_f_5.3" vType="vehicle.mercedes.coupe" speedFactor="1.16" vaporized="">
        <emissions CO_abs="5769.177706" CO2_abs="159284.096404" HC_abs="30.031802" PMx_abs="3.467917" NOx_abs="69.908321" fuel_abs="50805.632724" electricity_abs="0"/>
    </tripinfo>
    <tripinfo id="f_4.3" depart="15.80" departLane="-28_4" departPos="5.14" departPosLat="0.00" departSpeed="0.00" departDelay="9.80" arrival="66.90" arrivalLane="25_3" arrivalPos="64.03" arrivalPosLat="0.00" arrivalSpeed="12.91" duration="51.10" routeLength="202.19" waitingTime="22.20" waitingCount="1" stopTime="0.00" timeLoss="35.54" rerouteNo="0" devices="tripinfo_f_4.3 routing_f_4.3 emissions_f_4.3" vType="vehicle.mercedes.coupe" speedFactor="0.94" vaporized="">
        <emissions CO_abs="6024.964674" CO2_abs="157546.932710" HC_abs="31.114794" PMx_abs="3.428163" NOx_abs="69.044259" fuel_abs="50251.749395" electricity_abs="0"/>
    </tripinfo>
    <tripinfo id="f_5.4" depart="23.70" departLane="-28_4" departPos="5.14" departPosLat="0.00" departSpeed="0.00" departDelay="15.70" arrival="68.80" arrivalLane="-0_4" arrivalPos="53.56" arrivalPosLat="0.00" arrivalSpeed="11.37" duration="45.10" routeLength="189.02" waitingTime="15.40" waitingCount="1" stopTime="0.00" timeLoss="27.86" rerouteNo="0" devices="tripinfo_f_5.4 routing_f_5.4 emissions_f_5.4" vType="vehicle.mercedes.coupe" speedFactor="0.83" vaporized="">
        <emissions CO_abs="4836.082428" CO2_abs="130914.544308" HC_abs="25.087013" PMx_abs="2.756855" NOx_abs="56.918070" fuel_abs="41756.973989" electricity_abs="0"/>
    </tripinfo>
    <tripinfo id="f_4.4" depart="21.00" departLane="-28_4" departPos="5.14" departPosLat="0.00" departSpeed="0.00" departDelay="13.00" arrival="68.90" arrivalLane="25_3" arrivalPos="64.03" arrivalPosLat="0.00" arrivalSpeed="12.34" duration="47.90" routeLength="202.19" waitingTime="18.00" waitingCount="1" stopTime="0.00" timeLoss="31.50" rerouteNo="0" devices="tripinfo_f_4.4 routing_f_4.4 emissions_f_4.4" vType="vehicle.mercedes.coupe" speedFactor="0.89" vaporized="">
        <emissions CO_abs="5381.115639" CO2_abs="145292.781784" HC_abs="27.909917" PMx_abs="3.124641" NOx_abs="63.511190" fuel_abs="46343.048051" electricity_abs="0"/>
    </tripinfo>
    <tripinfo id="f_5.5" depart="29.00" departLane="-28_4" departPos="5.14" departPosLat="0.00" departSpeed="0.00" departDelay="19.00" arrival="70.30" arrivalLane="-0_4" arrivalPos="53.56" arrivalPosLat="0.00" arrivalSpeed="12.93" duration="41.30" routeLength="189.02" waitingTime="9.60" waitingCount="1" stopTime="0.00" timeLoss="26.00" rerouteNo="0" devices="tripinfo_f_5.5 routing_f_5.5 emissions_f_5.5" vType="vehicle.mercedes.coupe" speedFactor="0.93" vaporized="">
        <emissions CO_abs="4156.913213" CO2_abs="126013.095197" HC_abs="21.888095" PMx_abs="2.609420" NOx_abs="54.634334" fuel_abs="40193.313756" electricity_abs="0"/>
    </tripinfo>
    <tripinfo id="f_4.5" depart="26.40" departLane="-28_4" departPos="5.14" departPosLat="0.00" departSpeed="0.00" departDelay="16.40" arrival="70.40" arrivalLane="25_3" arrivalPos="64.03" arrivalPosLat="0.00" arrivalSpeed="15.61" duration="44.00" routeLength="202.19" waitingTime="13.40" waitingCount="1" stopTime="0.00" timeLoss="31.14" rerouteNo="0" devices="tripinfo_f_4.5 routing_f_4.5 emissions_f_4.5" vType="vehicle.mercedes.coupe" speedFactor="1.13" vaporized="">
        <emissions CO_abs="4916.487211" CO2_abs="149773.328406" HC_abs="25.916774" PMx_abs="3.202760" NOx_abs="65.448896" fuel_abs="47771.790010" electricity_abs="0"/>
    </tripinfo>
    <tripinfo id="f_4.6" depart="31.70" departLane="-28_4" departPos="5.14" departPosLat="0.00" departSpeed="0.00" departDelay="19.70" arrival="71.50" arrivalLane="25_4" arrivalPos="64.03" arrivalPosLat="0.00" arrivalSpeed="16.23" duration="39.80" routeLength="202.19" waitingTime="6.60" waitingCount="1" stopTime="0.00" timeLoss="27.37" rerouteNo="0" devices="tripinfo_f_4.6 routing_f_4.6 emissions_f_4.6" vType="vehicle.mercedes.coupe" speedFactor="1.17" vaporized="">
        <emissions CO_abs="3838.565133" CO2_abs="126412.667642" HC_abs="20.445083" PMx_abs="2.634036" NOx_abs="54.705635" fuel_abs="40320.543386" electricity_abs="0"/>
    </tripinfo>
    <tripinfo id="f_4.7" depart="37.60" departLane="-28_4" departPos="5.14" departPosLat="0.00" departSpeed="0.00" departDelay="23.60" arrival="72.00" arrivalLane="25_3" arrivalPos="64.03" arrivalPosLat="-0.00" arrivalSpeed="15.28" duration="34.40" routeLength="202.19" waitingTime="0.70" waitingCount="1" stopTime="0.00" timeLoss="21.14" rerouteNo="0" devices="tripinfo_f_4.7 routing_f_4.7 emissions_f_4.7" vType="vehicle.mercedes.coupe" speedFactor="1.10" vaporized="">
        <emissions CO_abs="2821.589489" CO2_abs="108597.237931" HC_abs="15.383300" PMx_abs="2.180769" NOx_abs="46.499352" fuel_abs="34637.925675" electricity_abs="0"/>
    </tripinfo>
    <tripinfo id="f_5.7" depart="40.30" departLane="-28_4" departPos="5.14" departPosLat="0.00" departSpeed="0.00" departDelay="26.30" arrival="73.90" arrivalLane="-0_4" arrivalPos="53.56" arrivalPosLat="0.00" arrivalSpeed="12.38" duration="33.60" routeLength="189.02" waitingTime="0.00" waitingCount="0" stopTime="0.00" timeLoss="17.80" rerouteNo="0" devices="tripinfo_f_5.7 routing_f_5.7 emissions_f_5.7" vType="vehicle.mercedes.coupe" speedFactor="0.90" vaporized="">
        <emissions CO_abs="2378.675929" CO2_abs="88010.471270" HC_abs="12.875941" PMx_abs="1.702258" NOx_abs="37.411050" fuel_abs="28071.742610" electricity_abs="0"/>
    </tripinfo>
    <tripinfo id="f_4.8" depart="47.70" departLane="-28_4" departPos="5.14" departPosLat="0.00" departSpeed="0.00" departDelay="31.70" arrival="73.90" arrivalLane="25_3" arrivalPos="64.03" arrivalPosLat="0.00" arrivalSpeed="14.41" duration="26.20" routeLength="202.19" waitingTime="0.00" waitingCount="0" stopTime="0.00" timeLoss="12.09" rerouteNo="0" devices="tripinfo_f_4.8 routing_f_4.8 emissions_f_4.8" vType="vehicle.mercedes.coupe" speedFactor="1.04" vaporized="">
        <emissions CO_abs="1988.162502" CO2_abs="92654.157110" HC_abs="11.216891" PMx_abs="1.788803" NOx_abs="39.221762" fuel_abs="29552.572346" electricity_abs="0"/>
    </tripinfo>
    <tripinfo id="f_2.10" depart="25.00" departLane="-14_3" departPos="4.31" departPosLat="0.00" departSpeed="0.00" departDelay="5.00" arrival="76.70" arrivalLane="-26_4" arrivalPos="61.99" arrivalPosLat="0.00" arrivalSpeed="16.20" duration="51.70" routeLength="206.69" waitingTime="27.60" waitingCount="1" stopTime="0.00" timeLoss="38.95" rerouteNo="0" devices="tripinfo_f_2.10 routing_f_2.10 emissions_f_2.10" vType="vehicle.seat.leon" speedFactor="1.17" vaporized="">
        <emissions CO_abs="6790.765207" CO2_abs="182931.370750" HC_abs="35.220954" PMx_abs="4.027220" NOx_abs="80.367888" fuel_abs="58348.284959" electricity_abs="0"/>
    </tripinfo>
    <tripinfo id="f_2.11" depart="27.50" departLane="-14_3" departPos="4.31" departPosLat="0.00" departSpeed="0.00" departDelay="5.50" arrival="77.40" arrivalLane="-26_3" arrivalPos="61.99" arrivalPosLat="-0.00" arrivalSpeed="12.44" duration="49.90" routeLength="206.69" waitingTime="22.90" waitingCount="1" stopTime="0.00" timeLoss="33.31" rerouteNo="0" devices="tripinfo_f_2.11 routing_f_2.11 emissions_f_2.11" vType="vehicle.seat.leon" speedFactor="0.90" vaporized="">
        <emissions CO_abs="5876.001020" CO2_abs="155673.329285" HC_abs="30.404515" PMx_abs="3.363938" NOx_abs="68.106564" fuel_abs="49654.115567" electricity_abs="0"/>
    </tripinfo>
    <tripinfo id="f_2.14" depart="35.00" departLane="-14_3" departPos="4.31" departPosLat="0.00" departSpeed="0.00" departDelay="7.00" arrival="78.40" arrivalLane="-26_4" arrivalPos="61.99" arrivalPosLat="0.00" arrivalSpeed="13.39" duration="43.40" routeLength="206.69" waitingTime="7.70" waitingCount="2" stopTime="0.00" timeLoss="28.02" rerouteNo="0" devices="tripinfo_f_2.14 routing_f_2.14 emissions_f_2.14" vType="vehicle.seat.leon" speedFactor="0.97" vaporized="">
        <emissions CO_abs="4105.614378" CO2_abs="126706.238986" HC_abs="21.669052" PMx_abs="2.675950" NOx_abs="55.110280" fuel_abs="40414.303183" electricity_abs="0"/>
    </tripinfo>