<?xml version="1.0" encoding="UTF-8"?>

<!-- generated on 2023-09-12 00:45:03 by Eclipse SUMO sumo Version 1.17.0
<configuration xmlns:xsi="http://www.w3.org/2001/XMLSchema-instance" xsi:noNamespaceSchemaLocation="http://sumo.dlr.de/xsd/sumoConfiguration.xsd">

    <input>
        <net-file value="configs/Town05/Town05.net.xml"/>
        <route-files value="configs/Town05/Town05.rou.xml"/>
    </input>

    <output>
        <queue-output value="queue.xml"/>
        <tripinfo-output value="tripinfo.xml"/>
        <collision-output value="collision.xml"/>
    </output>

    <time>
        <step-length value="0.1"/>
    </time>

    <processing>
        <lateral-resolution value="0.25"/>
        <collision.check-junctions value="true"/>
    </processing>

    <emissions>
        <device.emissions.probability value="1.0"/>
    </emissions>

    <traci_server>
        <remote-port value="3001"/>
        <num-clients value="1"/>
    </traci_server>

    <gui_only>
        <gui-settings-file value="configs/Town05/viewsettings.xml"/>
    </gui_only>

</configuration>
-->

<tripinfos xmlns:xsi="http://www.w3.org/2001/XMLSchema-instance" xsi:noNamespaceSchemaLocation="http://sumo.dlr.de/xsd/tripinfo_file.xsd">
    <tripinfo id="f_1.0" depart="0.00" departLane="1_3" departPos="4.31" departPosLat="0.00" departSpeed="0.00" departDelay="0.00" arrival="20.90" arrivalLane="39_3" arrivalPos="46.43" arrivalPosLat="0.00" arrivalSpeed="14.71" duration="20.90" routeLength="194.87" waitingTime="0.00" waitingCount="0" stopTime="0.00" timeLoss="7.65" rerouteNo="0" devices="tripinfo_f_1.0 routing_f_1.0 emissions_f_1.0" vType="vehicle.seat.leon" speedFactor="1.06" vaporized="">
        <emissions CO_abs="1880.765228" CO2_abs="99457.025068" HC_abs="10.912450" PMx_abs="1.929582" NOx_abs="42.081505" fuel_abs="31722.223958" electricity_abs="0"/>
    </tripinfo>
    <tripinfo id="f_1.1" depart="2.60" departLane="1_3" departPos="4.31" departPosLat="0.00" departSpeed="0.00" departDelay="0.60" arrival="24.50" arrivalLane="39_3" arrivalPos="46.43" arrivalPosLat="-0.00" arrivalSpeed="11.51" duration="21.90" routeLength="194.87" waitingTime="0.00" waitingCount="0" stopTime="0.00" timeLoss="4.94" rerouteNo="0" devices="tripinfo_f_1.1 routing_f_1.1 emissions_f_1.1" vType="vehicle.seat.leon" speedFactor="0.83" vaporized="">
        <emissions CO_abs="1586.408723" CO2_abs="81208.376235" HC_abs="9.122693" PMx_abs="1.509350" NOx_abs="34.000860" fuel_abs="25901.846803" electricity_abs="0"/>
    </tripinfo>
    <tripinfo id="f_1.2" depart="5.20" departLane="1_3" departPos="4.31" departPosLat="0.00" departSpeed="0.00" departDelay="1.20" arrival="26.00" arrivalLane="39_4" arrivalPos="46.43" arrivalPosLat="0.00" arrivalSpeed="15.01" duration="20.80" routeLength="194.87" waitingTime="0.00" waitingCount="0" stopTime="0.00" timeLoss="7.85" rerouteNo="0" devices="tripinfo_f_1.2 routing_f_1.2 emissions_f_1.2" vType="vehicle.seat.leon" speedFactor="1.09" vaporized="">
        <emissions CO_abs="1916.843036" CO2_abs="101873.797575" HC_abs="11.139891" PMx_abs="1.987830" NOx_abs="43.139359" fuel_abs="32493.048057" electricity_abs="0"/>
    </tripinfo>
    <tripinfo id="f_1.3" depart="7.90" departLane="1_3" departPos="4.31" departPosLat="0.00" departSpeed="0.00" departDelay="1.90" arrival="29.10" arrivalLane="39_3" arrivalPos="46.43" arrivalPosLat="0.00" arrivalSpeed="12.71" duration="21.20" routeLength="194.87" waitingTime="0.00" waitingCount="0" stopTime="0.00" timeLoss="6.00" rerouteNo="0" devices="tripinfo_f_1.3 routing_f_1.3 emissions_f_1.3" vType="vehicle.seat.leon" speedFactor="0.93" vaporized="">
        <emissions CO_abs="1685.074926" CO2_abs="88391.625525" HC_abs="9.739139" PMx_abs="1.670166" NOx_abs="37.117886" fuel_abs="28192.927523" electricity_abs="0"/>
    </tripinfo>
    <tripinfo id="f_5.0" depart="2.80" departLane="-28_4" departPos="5.14" departPosLat="0.00" departSpeed="0.00" departDelay="2.80" arrival="33.00" arrivalLane="-0_4" arrivalPos="53.56" arrivalPosLat="0.00" arrivalSpeed="14.17" duration="30.20" routeLength="189.02" waitingTime="6.30" waitingCount="1" stopTime="0.00" timeLoss="16.33" rerouteNo="0" devices="tripinfo_f_5.0 routing_f_5.0 emissions_f_5.0" vType="vehicle.mercedes.coupe" speedFactor="1.03" vaporized="">
        <emissions CO_abs="3257.053616" CO2_abs="118379.774972" HC_abs="17.620978" PMx_abs="2.423062" NOx_abs="50.951181" fuel_abs="37758.213313" electricity_abs="0"/>
    </tripinfo>
    <tripinfo id="f_4.0" depart="0.00" departLane="-28_4" departPos="5.14" departPosLat="0.00" departSpeed="0.00" departDelay="0.00" arrival="34.30" arrivalLane="25_3" arrivalPos="64.03" arrivalPosLat="0.00" arrivalSpeed="15.00" duration="34.30" routeLength="202.19" waitingTime="9.20" waitingCount="1" stopTime="0.00" timeLoss="20.77" rerouteNo="0" devices="tripinfo_f_4.0 routing_f_4.0 emissions_f_4.0" vType="vehicle.mercedes.coupe" speedFactor="1.08" vaporized="">
        <emissions CO_abs="3843.336162" CO2_abs="133089.715489" HC_abs="20.621066" PMx_abs="2.744428" NOx_abs="57.308640" fuel_abs="42450.167723" electricity_abs="0"/>
    </tripinfo>
    <tripinfo id="f_5.1" depart="8.40" departLane="-28_4" departPos="5.14" departPosLat="0.00" departSpeed="0.00" departDelay="6.40" arrival="34.60" arrivalLane="-0_4" arrivalPos="53.56" arrivalPosLat="0.00" arrivalSpeed="11.81" duration="26.20" routeLength="189.02" waitingTime="0.00" waitingCount="0" stopTime="0.00" timeLoss="9.56" rerouteNo="0" devices="tripinfo_f_5.1 routing_f_5.1 emissions_f_5.1" vType="vehicle.mercedes.coupe" speedFactor="0.86" vaporized="">
        <emissions CO_abs="2023.993482" CO2_abs="87302.717389" HC_abs="11.245037" PMx_abs="1.640879" NOx_abs="36.712409" fuel_abs="27845.846853" electricity_abs="0"/>
    </tripinfo>
    <tripinfo id="f_4.1" depart="5.60" departLane="-28_4" departPos="5.14" departPosLat="0.00" departSpeed="0.00" departDelay="3.60" arrival="35.60" arrivalLane="25_3" arrivalPos="64.03" arrivalPosLat="-0.00" arrivalSpeed="12.89" duration="30.00" routeLength="202.19" waitingTime="2.60" waitingCount="1" stopTime="0.00" timeLoss="14.43" rerouteNo="0" devices="tripinfo_f_4.1 routing_f_4.1 emissions_f_4.1" vType="vehicle.mercedes.coupe" speedFactor="0.94" vaporized="">
        <emissions CO_abs="2727.960704" CO2_abs="105210.542892" HC_abs="14.867275" PMx_abs="2.079965" NOx_abs="44.792711" fuel_abs="33557.752091" electricity_abs="0"/>
    </tripinfo>
    <tripinfo id="f_5.2" depart="14.00" departLane="-28_4" departPos="5.14" departPosLat="0.00" departSpeed="0.00" departDelay="10.00" arrival="35.70" arrivalLane="-0_4" arrivalPos="53.56" arrivalPosLat="0.00" arrivalSpeed="13.77" duration="21.70" routeLength="189.02" waitingTime="0.00" waitingCount="0" stopTime="0.00" timeLoss="7.27" rerouteNo="0" devices="tripinfo_f_5.2 routing_f_5.2 emissions_f_5.2" vType="vehicle.mercedes.coupe" speedFactor="0.99" vaporized="">
        <emissions CO_abs="1729.630339" CO2_abs="87231.276892" HC_abs="9.930939" PMx_abs="1.682466" NOx_abs="36.931614" fuel_abs="27822.828166" electricity_abs="0"/>
    </tripinfo>
    <tripinfo id="f_4.2" depart="11.30" departLane="-28_4" departPos="5.14" departPosLat="0.00" departSpeed="0.00" departDelay="7.30" arrival="36.60" arrivalLane="25_3" arrivalPos="64.03" arrivalPosLat="-0.00" arrivalSpeed="14.38" duration="25.30" routeLength="202.19" waitingTime="0.00" waitingCount="0" stopTime="0.00" timeLoss="12.31" rerouteNo="0" devices="tripinfo_f_4.2 routing_f_4.2 emissions_f_4.2" vType="vehicle.mercedes.coupe" speedFactor="1.12" vaporized="">
        <emissions CO_abs="2125.097764" CO2_abs="101708.755698" HC_abs="12.061169" PMx_abs="1.965637" NOx_abs="43.053865" fuel_abs="32440.553843" electricity_abs="0"/>
    </tripinfo>
    <tripinfo id="f_4.3" depart="16.80" departLane="-28_4" departPos="5.14" departPosLat="0.00" departSpeed="0.00" departDelay="10.80" arrival="38.50" arrivalLane="25_3" arrivalPos="64.03" arrivalPosLat="0.00" arrivalSpeed="12.83" duration="21.70" routeLength="202.19" waitingTime="0.00" waitingCount="0" stopTime="0.00" timeLoss="6.09" rerouteNo="0" devices="tripinfo_f_4.3 routing_f_4.3 emissions_f_4.3" vType="vehicle.mercedes.coupe" speedFactor="0.94" vaporized="">
        <emissions CO_abs="1600.804212" CO2_abs="83962.022464" HC_abs="9.249280" PMx_abs="1.577835" NOx_abs="35.184832" fuel_abs="26780.095493" electricity_abs="0"/>
    </tripinfo>
    <tripinfo id="f_5.3" depart="19.70" departLane="-28_4" departPos="5.14" departPosLat="0.00" departSpeed="0.00" departDelay="13.70" arrival="39.10" arrivalLane="-0_4" arrivalPos="53.56" arrivalPosLat="0.00" arrivalSpeed="15.97" duration="19.40" routeLength="189.02" waitingTime="0.00" waitingCount="0" stopTime="0.00" timeLoss="7.03" rerouteNo="0" devices="tripinfo_f_5.3 routing_f_5.3 emissions_f_5.3" vType="vehicle.mercedes.coupe" speedFactor="1.16" vaporized="">
        <emissions CO_abs="1876.770868" CO2_abs="101070.482753" HC_abs="10.945882" PMx_abs="2.004241" NOx_abs="42.975438" fuel_abs="32236.778388" electricity_abs="0"/>
    </tripinfo>
    <tripinfo id="f_4.4" depart="22.50" departLane="-28_4" departPos="5.14" departPosLat="0.00" departSpeed="0.00" departDelay="14.50" arrival="44.00" arrivalLane="25_3" arrivalPos="64.03" arrivalPosLat="0.00" arrivalSpeed="12.30" duration="21.50" routeLength="202.19" waitingTime="0.00" waitingCount="0" stopTime="0.00" timeLoss="5.14" rerouteNo="0" devices="tripinfo_f_4.4 routing_f_4.4 emissions_f_4.4" vType="vehicle.mercedes.coupe" speedFactor="0.89" vaporized="">
        <emissions CO_abs="1531.184203" CO2_abs="80788.269249" HC_abs="8.851116" PMx_abs="1.482752" NOx_abs="33.609734" fuel_abs="25767.847722" electricity_abs="0"/>
    </tripinfo>
    <tripinfo id="f_2.1" depart="2.60" departLane="-14_3" departPos="4.31" departPosLat="0.00" departSpeed="0.00" departDelay="0.60" arrival="48.10" arrivalLane="-26_4" arrivalPos="61.99" arrivalPosLat="0.00" arrivalSpeed="14.34" duration="45.50" routeLength="206.69" waitingTime="20.90" waitingCount="1" stopTime="0.00" timeLoss="31.26" rerouteNo="0" devices="tripinfo_f_2.1 routing_f_2.1 emissions_f_2.1" vType="vehicle.seat.leon" speedFactor="1.05" vaporized="">
        <emissions CO_abs="5680.903300" CO2_abs="162042.150387" HC_abs="29.675187" PMx_abs="3.486488" NOx_abs="70.714878" fuel_abs="51685.281738" electricity_abs="0"/>
    </tripinfo>
    <tripinfo id="f_2.0" depart="0.00" departLane="-14_3" departPos="4.31" departPosLat="0.00" departSpeed="0.00" departDelay="0.00" arrival="48.20" arrivalLane="-26_3" arrivalPos="61.99" arrivalPosLat="0.00" arrivalSpeed="12.88" duration="48.20" routeLength="206.69" waitingTime="23.20" waitingCount="1" stopTime="0.00" timeLoss="32.27" rerouteNo="0" devices="tripinfo_f_2.0 routing_f_2.0 emissions_f_2.0" vType="vehicle.seat.leon" speedFactor="0.94" vaporized="">
        <emissions CO_abs="5877.104556" CO2_abs="158431.613269" HC_abs="30.463926" PMx_abs="3.395898" NOx_abs="69.065539" fuel_abs="50533.876813" electricity_abs="0"/>
    </tripinfo>
    <tripinfo id="f_2.2" depart="5.20" departLane="-14_3" departPos="4.31" departPosLat="0.00" departSpeed="0.00" departDelay="1.20" arrival="49.10" arrivalLane="-26_3" arrivalPos="61.99" arrivalPosLat="-0.00" arrivalSpeed="14.10" duration="43.90" routeLength="206.69" waitingTime="17.10" waitingCount="1" stopTime="0.00" timeLoss="29.40" rerouteNo="0" devices="tripinfo_f_2.2 routing_f_2.2 emissions_f_2.2" vType="vehicle.seat.leon" speedFactor="1.03" vaporized="">
        <emissions CO_abs="5149.646501" CO2_abs="151014.193528" HC_abs="27.001311" PMx_abs="3.213798" NOx_abs="65.715941" fuel_abs="48167.730161" electricity_abs="0"/>
    </tripinfo>
    <tripinfo id="f_2.3" depart="7.90" departLane="-14_3" departPos="4.31" departPosLat="0.00" departSpeed="0.00" departDelay="1.90" arrival="49.70" arrivalLane="-26_4" arrivalPos="61.99" arrivalPosLat="0.00" arrivalSpeed="12.00" duration="41.80" routeLength="206.69" waitingTime="14.00" waitingCount="1" stopTime="0.00" timeLoss="24.84" rerouteNo="0" devices="tripinfo_f_2.3 routing_f_2.3 emissions_f_2.3" vType="vehicle.seat.leon" speedFactor="0.88" vaporized="">
        <emissions CO_abs="4487.407094" CO2_abs="131090.713082" HC_abs="23.501549" PMx_abs="2.720859" NOx_abs="56.668677" fuel_abs="41812.989520" electricity_abs="0"/>
    </tripinfo>
    <tripinfo id="f_2.4" depart="10.50" departLane="-14_3" departPos="4.31" departPosLat="0.00" departSpeed="0.00" departDelay="2.50" arrival="50.10" arrivalLane="-26_3" arrivalPos="61.99" arrivalPosLat="-0.00" arrivalSpeed="13.85" duration="39.60" routeLength="206.69" waitingTime="12.50" waitingCount="1" stopTime="0.00" timeLoss="24.88" rerouteNo="0" devices="tripinfo_f_2.4 routing_f_2.4 emissions_f_2.4" vType="vehicle.seat.leon" speedFactor="1.01" vaporized="">
        <emissions CO_abs="4425.614996" CO2_abs="138564.283321" HC_abs="23.398098" PMx_abs="2.897014" NOx_abs="59.986894" fuel_abs="44196.551685" electricity_abs="0"/>
    </tripinfo>
    <tripinfo id="f_2.5" depart="13.20" departLane="-14_3" departPos="4.31" departPosLat="0.00" departSpeed="0.00" departDelay="3.20" arrival="50.70" arrivalLane="-26_4" arrivalPos="61.99" arrivalPosLat="0.00" arrivalSpeed="12.74" duration="37.50" routeLength="206.69" waitingTime="9.60" waitingCount="1" stopTime="0.00" timeLoss="21.28" rerouteNo="0" devices="tripinfo_f_2.5 routing_f_2.5 emissions_f_2.5" vType="vehicle.seat.leon" speedFactor="0.92" vaporized="">
        <emissions CO_abs="3891.992259" CO2_abs="125011.940645" HC_abs="20.665129" PMx_abs="2.577382" NOx_abs="53.986811" fuel_abs="39873.860425" electricity_abs="0"/>
    </tripinfo>
    <tripinfo id="f_2.6" depart="15.90" departLane="-14_3" departPos="4.31" departPosLat="0.00" departSpeed="0.00" departDelay="3.90" arrival="51.20" arrivalLane="-26_3" arrivalPos="61.99" arrivalPosLat="-0.00" arrivalSpeed="15.92" duration="35.30" routeLength="206.69" waitingTime="7.60" waitingCount="1" stopTime="0.00" timeLoss="22.34" rerouteNo="0" devices="tripinfo_f_2.6 routing_f_2.6 emissions_f_2.6" vType="vehicle.seat.leon" speedFactor="1.15" vaporized="">
        <emissions CO_abs="3847.074106" CO2_abs="135853.766493" HC_abs="20.724010" PMx_abs="2.808009" NOx_abs="58.613609" fuel_abs="43331.729172" electricity_abs="0"/>
    </tripinfo>
    <tripinfo id="f_2.7" depart="18.60" departLane="-14_3" departPos="4.31" departPosLat="0.00" departSpeed="0.00" departDelay="4.60" arrival="51.70" arrivalLane="-26_4" arrivalPos="61.99" arrivalPosLat="0.00" arrivalSpeed="13.34" duration="33.10" routeLength="206.69" waitingTime="5.10" waitingCount="1" stopTime="0.00" timeLoss="17.81" rerouteNo="0" devices="tripinfo_f_2.7 routing_f_2.7 emissions_f_2.7" vType="vehicle.seat.leon" speedFactor="0.97" vaporized="">
        <emissions CO_abs="3233.127205" CO2_abs="118602.427460" HC_abs="17.510333" PMx_abs="2.393865" NOx_abs="50.878491" fuel_abs="37829.246129" electricity_abs="0"/>
    </tripinfo>
    <tripinfo id="f_2.8" depart="21.30" departLane="-14_3" departPos="4.31" departPosLat="0.00" departSpeed="0.00" departDelay="5.30" arrival="52.80" arrivalLane="-26_3" arrivalPos="61.99" arrivalPosLat="0.00" arrivalSpeed="13.23" duration="31.50" routeLength="206.69" waitingTime="3.30" waitingCount="1" stopTime="0.00" timeLoss="15.90" rerouteNo="0" devices="tripinfo_f_2.8 routing_f_2.8 emissions_f_2.8" vType="vehicle.seat.leon" speedFactor="0.96" vaporized="">
        <emissions CO_abs="2972.377211" CO2_abs="113650.863904" HC_abs="16.188378" PMx_abs="2.276340" NOx_abs="48.634947" fuel_abs="36249.839651" electricity_abs="0"/>
    </tripinfo>
    <tripinfo id="f_2.10" depart="26.50" departLane="-14_3" departPos="4.31" departPosLat="0.00" departSpeed="0.00" departDelay="6.50" arrival="52.80" arrivalLane="-26_4" arrivalPos="61.99" arrivalPosLat="0.00" arrivalSpeed="15.32" duration="26.30" routeLength="206.69" waitingTime="0.00" waitingCount="0" stopTime="0.00" timeLoss="13.50" rerouteNo="0" devices="tripinfo_f_2.10 routing_f_2.10 emissions_f_2.10" vType="vehicle.seat.leon" speedFactor="1.17" vaporized="">
        <emissions CO_abs="2325.043610" CO2_abs="110818.604860" HC_abs="13.194505" PMx_abs="2.172300" NOx_abs="47.118487" fuel_abs="35346.159883" electricity_abs="0"/>
    </tripinfo>
    <tripinfo id="f_2.12" depart="31.80" departLane="-14_3" departPos="4.31" departPosLat="0.00" departSpeed="0.00" departDelay="7.80" arrival="54.00" arrivalLane="-26_4" arrivalPos="61.99" arrivalPosLat="0.00" arrivalSpeed="15.47" duration="22.20" routeLength="206.69" waitingTime="0.00" waitingCount="0" stopTime="0.00" timeLoss="8.87" rerouteNo="0" devices="tripinfo_f_2.12 routing_f_2.12 emissions_f_2.12" vType="vehicle.seat.leon" speedFactor="1.12" vaporized="">
        <emissions CO_abs="1859.905090" CO2_abs="97212.264270" HC_abs="10.757140" PMx_abs="1.890522" NOx_abs="41.119007" fuel_abs="31006.257962" electricity_abs="0"/>
    </tripinfo>
    <tripinfo id="f_2.9" depart="23.90" departLane="-14_3" departPos="4.31" departPosLat="0.00" departSpeed="0.00" departDelay="5.90" arrival="54.20" arrivalLane="-26_3" arrivalPos="61.99" arrivalPosLat="-0.00" arrivalSpeed="13.74" duration="30.30" routeLength="206.69" waitingTime="1.40" waitingCount="1" stopTime="0.00" timeLoss="15.32" rerouteNo="0" devices="tripinfo_f_2.9 routing_f_2.9 emissions_f_2.9" vType="vehicle.seat.leon" speedFactor="1.00" vaporized="">
        <emissions CO_abs="2742.244129" CO2_abs="110158.055420" HC_abs="15.069054" PMx_abs="2.199094" NOx_abs="47.124648" fuel_abs="35135.698761" electricity_abs="0"/>
    </tripinfo>
    <tripinfo id="f_2.11" depart="29.10" departLane="-14_3" departPos="4.31" departPosLat="0.00" departSpeed="0.00" departDelay="7.10" arrival="56.00" arrivalLane="-26_3" arrivalPos="61.99" arrivalPosLat="-0.00" arrivalSpeed="12.31" duration="26.90" routeLength="206.69" waitingTime="0.00" waitingCount="0" stopTime="0.00" timeLoss="10.35" rerouteNo="0" devices="tripinfo_f_2.11 routing_f_2.11 emissions_f_2.11" vType="vehicle.seat.leon" speedFactor="0.90" vaporized="">
        <emissions CO_abs="2089.818384" CO2_abs="96322.118773" HC_abs="11.772002" PMx_abs="1.831539" NOx_abs="40.690793" fuel_abs="30722.532730" electricity_abs="0"/>
    </tripinfo>
    <tripinfo id="f_2.13" depart="34.50" departLane="-14_3" departPos="4.31" departPosLat="0.00" departSpeed="0.00" departDelay="8.50" arrival="57.60" arrivalLane="-26_3" arrivalPos="61.99" arrivalPosLat="0.00" arrivalSpeed="12.45" duration="23.10" routeLength="206.69" waitingTime="0.00" waitingCount="0" stopTime="0.00" timeLoss="6.64" rerouteNo="0" devices="tripinfo_f_2.13 routing_f_2.13 emissions_f_2.13" vType="vehicle.seat.leon" speedFactor="0.91" vaporized="">
        <emissions CO_abs="1675.221147" CO2_abs="86462.929924" HC_abs="9.643145" PMx_abs="1.609430" NOx_abs="36.177114" fuel_abs="27577.803905" electricity_abs="0"/>
    </tripinfo>
    <tripinfo id="f_2.14" depart="37.10" departLane="-14_3" departPos="4.31" departPosLat="0.00" departSpeed="0.00" departDelay="9.10" arrival="58.80" arrivalLane="-26_4" arrivalPos="61.99" arrivalPosLat="0.00" arrivalSpeed="13.34" duration="21.70" routeLength="206.69" waitingTime="0.00" waitingCount="0" stopTime="0.00" timeLoss="6.34" rerouteNo="0" devices="tripinfo_f_2.14 routing_f_2.14 emissions_f_2.14" vType="vehicle.seat.leon" speedFactor="0.97" vaporized="">
        <emissions CO_abs="1691.776783" CO2_abs="90400.705394" HC_abs="9.798409" PMx_abs="1.687209" NOx_abs="37.714159" fuel_abs="28833.741890" electricity_abs="0"/>
    </tripinfo>
    <tripinfo id="f_1.4" depart="10.60" departLane="1_3" departPos="4.31" departPosLat="0.00" departSpeed="0.00" departDelay="2.60" arrival="62.20" arrivalLane="39_3" arrivalPos="46.43" arrivalPosLat="-0.00" arrivalSpeed="14.03" duration="51.60" routeLength="194.87" waitingTime="26.70" waitingCount="1" stopTime="0.00" timeLoss="37.73" rerouteNo="0" devices="tripinfo_f_1.4 routing_f_1.4 emissions_f_1.4" vType="vehicle.seat.leon" speedFactor="1.02" vaporized="">
        <emissions CO_abs="6685.682076" CO2_abs="175208.407321" HC_abs="34.566962" PMx_abs="3.827238" NOx_abs="76.954340" fuel_abs="55885.090462" electricity_abs="0"/>
    </tripinfo>
    <tripinfo id="f_1.5" depart="13.20" departLane="1_3" departPos="4.31" departPosLat="0.00" departSpeed="0.00" departDelay="3.20" arrival="62.20" arrivalLane="39_4" arrivalPos="46.43" arrivalPosLat="0.00" arrivalSpeed="12.01" duration="49.00" routeLength="194.87" waitingTime="23.60" waitingCount="1" stopTime="0.00" timeLoss="32.90" rerouteNo="0" devices="tripinfo_f_1.5 routing_f_1.5 emissions_f_1.5" vType="vehicle.seat.leon" speedFactor="0.87" vaporized="">
        <emissions CO_abs="5975.345064" CO2_abs="155899.695394" HC_abs="30.865470" PMx_abs="3.340828" NOx_abs="68.081853" fuel_abs="49726.404466" electricity_abs="0"/>
    </tripinfo>
    <tripinfo id="f_1.6" depart="16.00" departLane="1_3" departPos="4.31" departPosLat="0.00" departSpeed="0.00" departDelay="4.00" arrival="63.10" arrivalLane="39_3" arrivalPos="46.43" arrivalPosLat="-0.00" arrivalSpeed="15.46" duration="47.10" routeLength="194.87" waitingTime="20.20" waitingCount="1" stopTime="0.00" timeLoss="35.13" rerouteNo="0" devices="tripinfo_f_1.6 routing_f_1.6 emissions_f_1.6" vType="vehicle.seat.leon" speedFactor="1.18" vaporized="">
        <emissions CO_abs="5857.370988" CO2_abs="165844.971990" HC_abs="30.585444" PMx_abs="3.578574" NOx_abs="72.586964" fuel_abs="52898.245895" electricity_abs="0"/>
    </tripinfo>
    <tripinfo id="f_1.7" depart="18.70" departLane="1_3" departPos="4.31" departPosLat="0.00" departSpeed="0.00" departDelay="4.70" arrival="63.20" arrivalLane="39_4" arrivalPos="46.43" arrivalPosLat="0.00" arrivalSpeed="13.24" duration="44.50" routeLength="194.87" waitingTime="17.70" waitingCount="1" stopTime="0.00" timeLoss="30.70" rerouteNo="0" devices="tripinfo_f_1.7 routing_f_1.7 emissions_f_1.7" vType="vehicle.seat.leon" speedFactor="1.02" vaporized="">
        <emissions CO_abs="5302.858942" CO2_abs="152037.369401" HC_abs="27.727930" PMx_abs="3.247188" NOx_abs="66.340308" fuel_abs="48494.139811" electricity_abs="0"/>
    </tripinfo>
    <tripinfo id="f_1.8" depart="21.40" departLane="1_3" departPos="4.31" departPosLat="0.00" departSpeed="0.00" departDelay="5.40" arrival="64.00" arrivalLane="39_3" arrivalPos="46.43" arrivalPosLat="-0.00" arrivalSpeed="14.13" duration="42.60" routeLength="194.87" waitingTime="15.60" waitingCount="1" stopTime="0.00" timeLoss="28.95" rerouteNo="0" devices="tripinfo_f_1.8 routing_f_1.8 emissions_f_1.8" vType="vehicle.seat.leon" speedFactor="1.03" vaporized="">
        <emissions CO_abs="5016.586001" CO2_abs="148373.436025" HC_abs="26.330553" PMx_abs="3.148857" NOx_abs="64.612510" fuel_abs="47325.404346" electricity_abs="0"/>
    </tripinfo>
    <tripinfo id="f_1.11" depart="29.20" departLane="1_3" departPos="4.31" departPosLat="0.00" departSpeed="0.00" departDelay="7.20" arrival="64.20" arrivalLane="39_4" arrivalPos="46.43" arrivalPosLat="0.00" arrivalSpeed="13.73" duration="35.00" routeLength="194.87" waitingTime="7.90" waitingCount="1" stopTime="0.00" timeLoss="20.84" rerouteNo="0" devices="tripinfo_f_1.11 routing_f_1.11 emissions_f_1.11" vType="vehicle.seat.leon" speedFactor="1.00" vaporized="">
        <emissions CO_abs="3683.585464" CO2_abs="125648.693911" HC_abs="19.726608" PMx_abs="2.564432" NOx_abs="54.084535" fuel_abs="40076.843257" electricity_abs="0"/>
    </tripinfo>
    <tripinfo id="f_1.9" depart="24.00" departLane="1_3" departPos="4.31" departPosLat="0.00" departSpeed="0.00" departDelay="6.00" arrival="65.00" arrivalLane="39_3" arrivalPos="46.43" arrivalPosLat="-0.00" arrivalSpeed="14.96" duration="41.00" routeLength="194.87" waitingTime="13.70" waitingCount="1" stopTime="0.00" timeLoss="28.11" rerouteNo="0" devices="tripinfo_f_1.9 routing_f_1.9 emissions_f_1.9" vType="vehicle.seat.leon" speedFactor="1.09" vaporized="">
        <emissions CO_abs="4717.928026" CO2_abs="142564.373621" HC_abs="24.840461" PMx_abs="3.007623" NOx_abs="61.973671" fuel_abs="45472.493240" electricity_abs="0"/>
    </tripinfo>
    <tripinfo id="f_1.10" depart="26.60" departLane="1_3" departPos="4.31" departPosLat="0.00" departSpeed="0.00" departDelay="6.60" arrival="65.60" arrivalLane="39_4" arrivalPos="46.43" arrivalPosLat="0.00" arrivalSpeed="11.70" duration="39.00" routeLength="194.87" waitingTime="7.40" waitingCount="2" stopTime="0.00" timeLoss="22.51" rerouteNo="0" devices="tripinfo_f_1.10 routing_f_1.10 emissions_f_1.10" vType="vehicle.seat.leon" speedFactor="0.85" vaporized="">
        <emissions CO_abs="3923.100938" CO2_abs="123663.521682" HC_abs="20.763335" PMx_abs="2.546100" NOx_abs="53.457110" fuel_abs="39443.812425" electricity_abs="0"/>
    </tripinfo>
    <tripinfo id="f_1.12" depart="31.90" departLane="1_3" departPos="4.31" departPosLat="0.00" departSpeed="0.00" departDelay="7.90" arrival="66.40" arrivalLane="39_3" arrivalPos="46.43" arrivalPosLat="-0.00" arrivalSpeed="14.84" duration="34.50" routeLength="194.87" waitingTime="4.80" waitingCount="1" stopTime="0.00" timeLoss="21.51" rerouteNo="0" devices="tripinfo_f_1.12 routing_f_1.12 emissions_f_1.12" vType="vehicle.seat.leon" speedFactor="1.08" vaporized="">
        <emissions CO_abs="3520.467258" CO2_abs="125799.688399" HC_abs="18.993280" PMx_abs="2.571850" NOx_abs="54.218185" fuel_abs="40124.889368" electricity_abs="0"/>
    </tripinfo>
    <tripinfo id="f_1.13" depart="34.50" departLane="1_3" departPos="4.31" departPosLat="0.00" departSpeed="0.00" departDelay="8.50" arrival="67.00" arrivalLane="39_4" arrivalPos="46.43" arrivalPosLat="0.00" arrivalSpeed="12.17" duration="32.50" routeLength="194.87" waitingTime="3.40" waitingCount="1" stopTime="0.00" timeLoss="16.57" rerouteNo="0" devices="tripinfo_f_1.13 routing_f_1.13 emissions_f_1.13" vType="vehicle.seat.leon" speedFactor="0.88" vaporized="">
        <emissions CO_abs="3008.517052" CO2_abs="109059.774583" HC_abs="16.253734" PMx_abs="2.180024" NOx_abs="46.765211" fuel_abs="34785.573271" electricity_abs="0"/>
    </tripinfo>
    <tripinfo id="f_1.14" depart="37.20" departLane="1_3" departPos="4.31" departPosLat="0.00" departSpeed="0.00" departDelay="9.20" arrival="67.90" arrivalLane="39_3" arrivalPos="46.43" arrivalPosLat="-0.00" arrivalSpeed="14.14" duration="30.70" routeLength="194.87" waitingTime="2.40" waitingCount="1" stopTime="0.00" timeLoss="16.91" rerouteNo="0" devices="tripinfo_f_1.14 routing_f_1.14 emissions_f_1.14" vType="vehicle.seat.leon" speedFactor="1.02" vaporized="">
        <emissions CO_abs="2941.599989" CO2_abs="114438.720166" HC_abs="16.085187" PMx_abs="2.305916" NOx_abs="49.146936" fuel_abs="36501.080328" electricity_abs="0"/>
    </tripinfo>
    <tripinfo id="f_1.16" depart="42.40" departLane="1_3" departPos="4.31" departPosLat="0.00" departSpeed="0.00" departDelay="10.40" arrival="68.20" arrivalLane="39_4" arrivalPos="46.43" arrivalPosLat="0.00" arrivalSpeed="14.23" duration="25.80" routeLength="194.87" waitingTime="0.00" waitingCount="0" stopTime="0.00" timeLoss="12.21" rerouteNo="0" devices="tripinfo_f_1.16 routing_f_1.16 emissions_f_1.16" vType="vehicle.seat.leon" speedFactor="1.03" vaporized="">
        <emissions CO_abs="2250.272616" CO2_abs="103070.962606" HC_abs="12.679430" PMx_abs="2.014384" NOx_abs="43.920669" fuel_abs="32875.064198" electricity_abs="0"/>
    </tripinfo>
    <tripinfo id="f_1.15" depart="39.80" departLane="1_3" departPos="4.31" departPosLat="0.00" departSpeed="0.00" departDelay="9.80" arrival="69.60" arrivalLane="39_3" arrivalPos="46.43" arrivalPosLat="-0.00" arrivalSpeed="13.60" duration="29.80" routeLength="194.87" waitingTime="0.10" waitingCount="1" stopTime="0.00" timeLoss="15.47" rerouteNo="0" devices="tripinfo_f_1.15 routing_f_1.15 emissions_f_1.15" vType="vehicle.seat.leon" speedFactor="0.98" vaporized="">
        <emissions CO_abs="2636.380069" CO2_abs="107292.742663" HC_abs="14.514210" PMx_abs="2.103260" NOx_abs="45.723321" fuel_abs="34221.804330" electricity_abs="0"/>
    </tripinfo>
    <tripinfo id="f_1.17" depart="45.10" departLane="1_3" departPos="4.31" departPosLat="0.00" departSpeed="0.00" departDelay="11.10" arrival="70.80" arrivalLane="39_3" arrivalPos="46.43" arrivalPosLat="-0.00" arrivalSpeed="13.36" duration="25.70" routeLength="194.87" waitingTime="0.00" waitingCount="0" stopTime="0.00" timeLoss="11.31" rerouteNo="0" devices="tripinfo_f_1.17 routing_f_1.17 emissions_f_1.17" vType="vehicle.seat.leon" speedFactor="0.98" vaporized="">
        <emissions CO_abs="2070.860101" CO2_abs="95978.497552" HC_abs="11.687718" PMx_abs="1.861687" NOx_abs="40.813158" fuel_abs="30612.881478" electricity_abs="0"/>
    </tripinfo>
    <tripinfo id="f_1.19" depart="50.30" departLane="1_3" departPos="4.31" departPosLat="0.00" departSpeed="0.00" departDelay="12.30" arrival="71.40" arrivalLane="39_4" arrivalPos="46.43" arrivalPosLat="0.00" arrivalSpeed="14.49" duration="21.10" routeLength="194.87" waitingTime="0.00" waitingCount="0" stopTime="0.00" timeLoss="7.78" rerouteNo="0" devices="tripinfo_f_1.19 routing_f_1.19 emissions_f_1.19" vType="vehicle.seat.leon" speedFactor="1.06" vaporized="">
        <emissions CO_abs="1904.284481" CO2_abs="100280.439955" HC_abs="11.033497" PMx_abs="1.946350" NOx_abs="42.422365" fuel_abs="31984.859143" electricity_abs="0"/>
    </tripinfo>
    <tripinfo id="f_1.18" depart="47.70" departLane="1_3" departPos="4.31" departPosLat="0.00" departSpeed="0.00" departDelay="11.70" arrival="73.10" arrivalLane="39_3" arrivalPos="46.43" arrivalPosLat="0.00" arrivalSpeed="13.94" duration="25.40" routeLength="194.87" waitingTime="0.10" waitingCount="1" stopTime="0.00" timeLoss="11.57" rerouteNo="0" devices="tripinfo_f_1.18 routing_f_1.18 emissions_f_1.18" vType="vehicle.seat.leon" speedFactor="1.02" vaporized="">
        <emissions CO_abs="2267.793567" CO2_abs="102207.441305" HC_abs="12.729668" PMx_abs="1.990369" NOx_abs="43.434028" fuel_abs="32599.674507" electricity_abs="0"/>
    </tripinfo>