<?xml version="1.0" encoding="UTF-8"?>

<!-- generated on 2023-09-13 22:26:00 by Eclipse SUMO sumo Version 1.17.0
<configuration xmlns:xsi="http://www.w3.org/2001/XMLSchema-instance" xsi:noNamespaceSchemaLocation="http://sumo.dlr.de/xsd/sumoConfiguration.xsd">

    <input>
        <net-file value="configs/Town05/Town05.net.xml"/>
        <route-files value="configs/Town05/Town05.rou.xml"/>
    </input>

    <output>
        <queue-output value="queue.xml"/>
        <tripinfo-output value="tripinfo.xml"/>
        <collision-output value="collision.xml"/>
    </output>

    <time>
        <step-length value="0.1"/>
    </time>

    <processing>
        <lateral-resolution value="0.25"/>
        <collision.check-junctions value="true"/>
    </processing>

    <emissions>
        <device.emissions.probability value="1.0"/>
    </emissions>

    <traci_server>
        <remote-port value="3001"/>
        <num-clients value="1"/>
    </traci_server>

    <gui_only>
        <gui-settings-file value="configs/Town05/viewsettings.xml"/>
    </gui_only>

</configuration>
-->

<tripinfos xmlns:xsi="http://www.w3.org/2001/XMLSchema-instance" xsi:noNamespaceSchemaLocation="http://sumo.dlr.de/xsd/tripinfo_file.xsd">
    <tripinfo id="f_1.0" depart="0.00" departLane="1_3" departPos="4.31" departPosLat="0.00" departSpeed="0.00" departDelay="0.00" arrival="20.00" arrivalLane="39_3" arrivalPos="46.43" arrivalPosLat="0.00" arrivalSpeed="14.60" duration="20.00" routeLength="194.87" waitingTime="0.00" waitingCount="0" stopTime="0.00" timeLoss="6.77" rerouteNo="0" devices="tripinfo_f_1.0 routing_f_1.0 emissions_f_1.0" vType="vehicle.seat.leon" speedFactor="1.06" vaporized="">
        <emissions CO_abs="1836.379829" CO2_abs="99220.929943" HC_abs="10.684171" PMx_abs="1.952430" NOx_abs="42.092491" fuel_abs="31646.862978" electricity_abs="0"/>
    </tripinfo>
    <tripinfo id="f_1.1" depart="2.50" departLane="1_3" departPos="4.31" departPosLat="0.00" departSpeed="0.00" departDelay="0.50" arrival="24.20" arrivalLane="39_3" arrivalPos="46.43" arrivalPosLat="0.00" arrivalSpeed="11.40" duration="21.70" routeLength="194.87" waitingTime="0.00" waitingCount="0" stopTime="0.00" timeLoss="4.79" rerouteNo="0" devices="tripinfo_f_1.1 routing_f_1.1 emissions_f_1.1" vType="vehicle.seat.leon" speedFactor="0.83" vaporized="">
        <emissions CO_abs="1519.846468" CO2_abs="79386.360291" HC_abs="8.770849" PMx_abs="1.443441" NOx_abs="32.993045" fuel_abs="25320.724565" electricity_abs="0"/>
    </tripinfo>
    <tripinfo id="f_1.2" depart="5.10" departLane="1_3" departPos="4.31" departPosLat="0.00" departSpeed="0.00" departDelay="1.10" arrival="25.10" arrivalLane="39_4" arrivalPos="46.43" arrivalPosLat="0.00" arrivalSpeed="15.01" duration="20.00" routeLength="194.87" waitingTime="0.00" waitingCount="0" stopTime="0.00" timeLoss="7.11" rerouteNo="0" devices="tripinfo_f_1.2 routing_f_1.2 emissions_f_1.2" vType="vehicle.seat.leon" speedFactor="1.09" vaporized="">
        <emissions CO_abs="1887.638431" CO2_abs="101395.982655" HC_abs="10.988213" PMx_abs="2.013384" NOx_abs="43.131710" fuel_abs="32340.593217" electricity_abs="0"/>
    </tripinfo>
    <tripinfo id="f_1.3" depart="7.70" departLane="1_3" departPos="4.31" departPosLat="0.00" departSpeed="0.00" departDelay="1.70" arrival="28.40" arrivalLane="39_3" arrivalPos="46.43" arrivalPosLat="-0.00" arrivalSpeed="12.75" duration="20.70" routeLength="194.87" waitingTime="0.00" waitingCount="0" stopTime="0.00" timeLoss="5.54" rerouteNo="0" devices="tripinfo_f_1.3 routing_f_1.3 emissions_f_1.3" vType="vehicle.seat.leon" speedFactor="0.93" vaporized="">
        <emissions CO_abs="1636.227998" CO2_abs="87142.261376" HC_abs="9.482214" PMx_abs="1.655055" NOx_abs="36.639881" fuel_abs="27794.410865" electricity_abs="0"/>
    </tripinfo>
    <tripinfo id="f_2.1" depart="2.50" departLane="-14_3" departPos="4.31" departPosLat="0.00" departSpeed="0.00" departDelay="0.50" arrival="32.20" arrivalLane="-26_4" arrivalPos="61.99" arrivalPosLat="0.00" arrivalSpeed="14.46" duration="29.70" routeLength="206.69" waitingTime="2.50" waitingCount="1" stopTime="0.00" timeLoss="15.44" rerouteNo="0" devices="tripinfo_f_2.1 routing_f_2.1 emissions_f_2.1" vType="vehicle.seat.leon" speedFactor="1.05" vaporized="">
        <emissions CO_abs="2775.748169" CO2_abs="113884.515014" HC_abs="15.321009" PMx_abs="2.321873" NOx_abs="48.993853" fuel_abs="36324.189809" electricity_abs="0"/>
    </tripinfo>
    <tripinfo id="f_2.0" depart="0.00" departLane="-14_3" departPos="4.31" departPosLat="0.00" departSpeed="0.00" departDelay="0.00" arrival="32.40" arrivalLane="-26_3" arrivalPos="61.99" arrivalPosLat="0.00" arrivalSpeed="12.99" duration="32.40" routeLength="206.69" waitingTime="8.00" waitingCount="1" stopTime="0.00" timeLoss="16.50" rerouteNo="0" devices="tripinfo_f_2.0 routing_f_2.0 emissions_f_2.0" vType="vehicle.seat.leon" speedFactor="0.94" vaporized="">
        <emissions CO_abs="3328.115235" CO2_abs="117957.082862" HC_abs="17.914899" PMx_abs="2.402283" NOx_abs="50.629125" fuel_abs="37623.460736" electricity_abs="0"/>
    </tripinfo>
    <tripinfo id="f_2.4" depart="10.00" departLane="-14_3" departPos="4.31" departPosLat="0.00" departSpeed="0.00" departDelay="2.00" arrival="33.90" arrivalLane="-26_4" arrivalPos="61.99" arrivalPosLat="0.00" arrivalSpeed="13.97" duration="23.90" routeLength="206.69" waitingTime="0.00" waitingCount="0" stopTime="0.00" timeLoss="9.17" rerouteNo="0" devices="tripinfo_f_2.4 routing_f_2.4 emissions_f_2.4" vType="vehicle.seat.leon" speedFactor="1.01" vaporized="">
        <emissions CO_abs="1897.581131" CO2_abs="95008.966635" HC_abs="10.888169" PMx_abs="1.843648" NOx_abs="40.258081" fuel_abs="30303.558909" electricity_abs="0"/>
    </tripinfo>
    <tripinfo id="f_2.2" depart="5.00" departLane="-14_3" departPos="4.31" departPosLat="0.00" departSpeed="0.00" departDelay="1.00" arrival="34.10" arrivalLane="-26_3" arrivalPos="61.99" arrivalPosLat="-0.00" arrivalSpeed="14.25" duration="29.10" routeLength="206.69" waitingTime="0.00" waitingCount="0" stopTime="0.00" timeLoss="14.58" rerouteNo="0" devices="tripinfo_f_2.2 routing_f_2.2 emissions_f_2.2" vType="vehicle.seat.leon" speedFactor="1.03" vaporized="">
        <emissions CO_abs="2173.948958" CO2_abs="98307.126810" HC_abs="12.207058" PMx_abs="1.925443" NOx_abs="41.829673" fuel_abs="31355.629821" electricity_abs="0"/>
    </tripinfo>
    <tripinfo id="f_2.3" depart="7.50" departLane="-14_3" departPos="4.31" departPosLat="0.00" departSpeed="0.00" departDelay="1.50" arrival="36.10" arrivalLane="-26_3" arrivalPos="61.99" arrivalPosLat="-0.00" arrivalSpeed="12.15" duration="28.60" routeLength="206.69" waitingTime="0.00" waitingCount="0" stopTime="0.00" timeLoss="11.63" rerouteNo="0" devices="tripinfo_f_2.3 routing_f_2.3 emissions_f_2.3" vType="vehicle.seat.leon" speedFactor="0.88" vaporized="">
        <emissions CO_abs="1929.787289" CO2_abs="85265.146424" HC_abs="10.778126" PMx_abs="1.601054" NOx_abs="35.898609" fuel_abs="27195.916179" electricity_abs="0"/>
    </tripinfo>
    <tripinfo id="f_2.6" depart="15.20" departLane="-14_3" departPos="4.31" departPosLat="0.00" departSpeed="0.00" departDelay="3.20" arrival="36.20" arrivalLane="-26_4" arrivalPos="61.99" arrivalPosLat="0.00" arrivalSpeed="15.95" duration="21.00" routeLength="206.69" waitingTime="0.00" waitingCount="0" stopTime="0.00" timeLoss="8.05" rerouteNo="0" devices="tripinfo_f_2.6 routing_f_2.6 emissions_f_2.6" vType="vehicle.seat.leon" speedFactor="1.15" vaporized="">
        <emissions CO_abs="1782.364098" CO2_abs="96661.015740" HC_abs="10.370544" PMx_abs="1.887132" NOx_abs="40.844249" fuel_abs="30830.385027" electricity_abs="0"/>
    </tripinfo>
    <tripinfo id="f_2.5" depart="12.60" departLane="-14_3" departPos="4.31" departPosLat="0.00" departSpeed="0.00" departDelay="2.60" arrival="38.00" arrivalLane="-26_3" arrivalPos="61.99" arrivalPosLat="0.00" arrivalSpeed="12.65" duration="25.40" routeLength="206.69" waitingTime="0.00" waitingCount="0" stopTime="0.00" timeLoss="9.16" rerouteNo="0" devices="tripinfo_f_2.5 routing_f_2.5 emissions_f_2.5" vType="vehicle.seat.leon" speedFactor="0.92" vaporized="">
        <emissions CO_abs="1825.019811" CO2_abs="87588.121577" HC_abs="10.360022" PMx_abs="1.658588" NOx_abs="36.925325" fuel_abs="27936.732540" electricity_abs="0"/>
    </tripinfo>
    <tripinfo id="f_2.7" depart="17.70" departLane="-14_3" departPos="4.31" departPosLat="0.00" departSpeed="0.00" departDelay="3.70" arrival="40.10" arrivalLane="-26_3" arrivalPos="61.99" arrivalPosLat="0.00" arrivalSpeed="13.44" duration="22.40" routeLength="206.69" waitingTime="0.00" waitingCount="0" stopTime="0.00" timeLoss="7.10" rerouteNo="0" devices="tripinfo_f_2.7 routing_f_2.7 emissions_f_2.7" vType="vehicle.seat.leon" speedFactor="0.97" vaporized="">
        <emissions CO_abs="1672.453381" CO2_abs="86699.510525" HC_abs="9.643749" PMx_abs="1.659628" NOx_abs="36.574050" fuel_abs="27653.204750" electricity_abs="0"/>
    </tripinfo>
    <tripinfo id="f_2.8" depart="20.30" departLane="-14_3" departPos="4.31" departPosLat="0.00" departSpeed="0.00" departDelay="4.30" arrival="42.80" arrivalLane="-26_3" arrivalPos="61.99" arrivalPosLat="-0.00" arrivalSpeed="13.17" duration="22.50" routeLength="206.69" waitingTime="0.00" waitingCount="0" stopTime="0.00" timeLoss="6.88" rerouteNo="0" devices="tripinfo_f_2.8 routing_f_2.8 emissions_f_2.8" vType="vehicle.seat.leon" speedFactor="0.96" vaporized="">
        <emissions CO_abs="1632.749368" CO2_abs="85298.376924" HC_abs="9.423151" PMx_abs="1.614890" NOx_abs="35.875825" fuel_abs="27206.317862" electricity_abs="0"/>
    </tripinfo>
    <tripinfo id="f_5.0" depart="2.70" departLane="-28_4" departPos="5.14" departPosLat="0.00" departSpeed="0.00" departDelay="2.70" arrival="46.30" arrivalLane="-0_4" arrivalPos="53.56" arrivalPosLat="0.00" arrivalSpeed="14.23" duration="43.60" routeLength="189.02" waitingTime="21.20" waitingCount="1" stopTime="0.00" timeLoss="29.75" rerouteNo="0" devices="tripinfo_f_5.0 routing_f_5.0 emissions_f_5.0" vType="vehicle.mercedes.coupe" speedFactor="1.03" vaporized="">
        <emissions CO_abs="5554.782784" CO2_abs="154612.185770" HC_abs="28.919437" PMx_abs="3.363273" NOx_abs="67.715399" fuel_abs="49315.447853" electricity_abs="0"/>
    </tripinfo>
    <tripinfo id="f_4.0" depart="0.00" departLane="-28_4" departPos="5.14" departPosLat="0.00" departSpeed="0.00" departDelay="0.00" arrival="47.10" arrivalLane="25_3" arrivalPos="64.03" arrivalPosLat="0.00" arrivalSpeed="14.89" duration="47.10" routeLength="202.19" waitingTime="24.20" waitingCount="1" stopTime="0.00" timeLoss="33.60" rerouteNo="0" devices="tripinfo_f_4.0 routing_f_4.0 emissions_f_4.0" vType="vehicle.mercedes.coupe" speedFactor="1.08" vaporized="">
        <emissions CO_abs="6118.971051" CO2_abs="168871.482615" HC_abs="31.812055" PMx_abs="3.691650" NOx_abs="73.962235" fuel_abs="53863.641226" electricity_abs="0"/>
    </tripinfo>
    <tripinfo id="f_5.1" depart="8.10" departLane="-28_4" departPos="5.14" departPosLat="0.00" departSpeed="0.00" departDelay="6.10" arrival="48.80" arrivalLane="-0_4" arrivalPos="53.56" arrivalPosLat="0.00" arrivalSpeed="11.79" duration="40.70" routeLength="189.02" waitingTime="10.80" waitingCount="1" stopTime="0.00" timeLoss="24.03" rerouteNo="0" devices="tripinfo_f_5.1 routing_f_5.1 emissions_f_5.1" vType="vehicle.mercedes.coupe" speedFactor="0.86" vaporized="">
        <emissions CO_abs="4066.259243" CO2_abs="117386.543683" HC_abs="21.262181" PMx_abs="2.451602" NOx_abs="50.878663" fuel_abs="37441.887060" electricity_abs="0"/>
    </tripinfo>
    <tripinfo id="f_4.1" depart="5.40" departLane="-28_4" departPos="5.14" departPosLat="0.00" departSpeed="0.00" departDelay="3.40" arrival="49.20" arrivalLane="25_3" arrivalPos="64.03" arrivalPosLat="0.00" arrivalSpeed="12.87" duration="43.80" routeLength="202.19" waitingTime="13.50" waitingCount="1" stopTime="0.00" timeLoss="28.24" rerouteNo="0" devices="tripinfo_f_4.1 routing_f_4.1 emissions_f_4.1" vType="vehicle.mercedes.coupe" speedFactor="0.94" vaporized="">
        <emissions CO_abs="4620.626020" CO2_abs="132036.360407" HC_abs="24.125415" PMx_abs="2.810127" NOx_abs="57.474635" fuel_abs="42114.601085" electricity_abs="0"/>
    </tripinfo>
    <tripinfo id="f_5.2" depart="13.40" departLane="-28_4" departPos="5.14" departPosLat="0.00" departSpeed="0.00" departDelay="9.40" arrival="50.60" arrivalLane="-0_4" arrivalPos="53.56" arrivalPosLat="0.00" arrivalSpeed="13.69" duration="37.20" routeLength="189.02" waitingTime="6.20" waitingCount="1" stopTime="0.00" timeLoss="22.81" rerouteNo="0" devices="tripinfo_f_5.2 routing_f_5.2 emissions_f_5.2" vType="vehicle.mercedes.coupe" speedFactor="0.99" vaporized="">
        <emissions CO_abs="3570.293442" CO2_abs="115791.398125" HC_abs="18.981301" PMx_abs="2.389680" NOx_abs="50.044643" fuel_abs="36932.845331" electricity_abs="0"/>
    </tripinfo>
    <tripinfo id="f_4.2" depart="10.80" departLane="-28_4" departPos="5.14" departPosLat="0.00" departSpeed="0.00" departDelay="6.80" arrival="51.00" arrivalLane="25_3" arrivalPos="64.03" arrivalPosLat="0.00" arrivalSpeed="15.45" duration="40.20" routeLength="202.19" waitingTime="8.90" waitingCount="1" stopTime="0.00" timeLoss="27.16" rerouteNo="0" devices="tripinfo_f_4.2 routing_f_4.2 emissions_f_4.2" vType="vehicle.mercedes.coupe" speedFactor="1.12" vaporized="">
        <emissions CO_abs="4105.390362" CO2_abs="131510.484828" HC_abs="21.787992" PMx_abs="2.746972" NOx_abs="56.933447" fuel_abs="41946.611744" electricity_abs="0"/>
    </tripinfo>
    <tripinfo id="f_5.3" depart="18.80" departLane="-28_4" departPos="5.14" departPosLat="0.00" departSpeed="0.00" departDelay="12.80" arrival="52.30" arrivalLane="-0_4" arrivalPos="53.56" arrivalPosLat="0.00" arrivalSpeed="15.50" duration="33.50" routeLength="189.02" waitingTime="2.10" waitingCount="1" stopTime="0.00" timeLoss="21.15" rerouteNo="0" devices="tripinfo_f_5.3 routing_f_5.3 emissions_f_5.3" vType="vehicle.mercedes.coupe" speedFactor="1.16" vaporized="">
        <emissions CO_abs="3060.475777" CO2_abs="112596.726233" HC_abs="16.592980" PMx_abs="2.285090" NOx_abs="48.419707" fuel_abs="35913.655014" electricity_abs="0"/>
    </tripinfo>
    <tripinfo id="f_4.3" depart="16.10" departLane="-28_4" departPos="5.14" departPosLat="0.00" departSpeed="0.00" departDelay="10.10" arrival="53.00" arrivalLane="25_3" arrivalPos="64.03" arrivalPosLat="0.00" arrivalSpeed="12.92" duration="36.90" routeLength="202.19" waitingTime="4.80" waitingCount="1" stopTime="0.00" timeLoss="21.29" rerouteNo="0" devices="tripinfo_f_4.3 routing_f_4.3 emissions_f_4.3" vType="vehicle.mercedes.coupe" speedFactor="0.94" vaporized="">
        <emissions CO_abs="3357.516252" CO2_abs="112788.979393" HC_abs="17.940366" PMx_abs="2.302412" NOx_abs="48.562680" fuel_abs="35975.147250" electricity_abs="0"/>
    </tripinfo>
    <tripinfo id="f_4.4" depart="21.50" departLane="-28_4" departPos="5.14" departPosLat="0.00" departSpeed="0.00" departDelay="13.50" arrival="55.20" arrivalLane="25_3" arrivalPos="64.03" arrivalPosLat="0.00" arrivalSpeed="12.26" duration="33.70" routeLength="202.19" waitingTime="0.00" waitingCount="0" stopTime="0.00" timeLoss="17.29" rerouteNo="0" devices="tripinfo_f_4.4 routing_f_4.4 emissions_f_4.4" vType="vehicle.mercedes.coupe" speedFactor="0.89" vaporized="">
        <emissions CO_abs="2752.125550" CO2_abs="101385.578820" HC_abs="14.896535" PMx_abs="2.020983" NOx_abs="43.380802" fuel_abs="32337.802667" electricity_abs="0"/>
    </tripinfo>
    <tripinfo id="f_5.4" depart="24.20" departLane="-28_4" departPos="5.14" departPosLat="0.00" departSpeed="0.00" departDelay="16.20" arrival="55.20" arrivalLane="-0_4" arrivalPos="53.56" arrivalPosLat="0.00" arrivalSpeed="11.43" duration="31.00" routeLength="189.02" waitingTime="0.00" waitingCount="0" stopTime="0.00" timeLoss="13.77" rerouteNo="0" devices="tripinfo_f_5.4 routing_f_5.4 emissions_f_5.4" vType="vehicle.mercedes.coupe" speedFactor="0.83" vaporized="">
        <emissions CO_abs="2244.570251" CO2_abs="88400.686381" HC_abs="12.289400" PMx_abs="1.691695" NOx_abs="37.464585" fuel_abs="28196.135350" electricity_abs="0"/>
    </tripinfo>
    <tripinfo id="f_4.5" depart="26.90" departLane="-28_4" departPos="5.14" departPosLat="0.00" departSpeed="0.00" departDelay="16.90" arrival="57.10" arrivalLane="25_3" arrivalPos="64.03" arrivalPosLat="0.00" arrivalSpeed="15.66" duration="30.20" routeLength="202.19" waitingTime="0.00" waitingCount="0" stopTime="0.00" timeLoss="17.27" rerouteNo="0" devices="tripinfo_f_4.5 routing_f_4.5 emissions_f_4.5" vType="vehicle.mercedes.coupe" speedFactor="1.13" vaporized="">
        <emissions CO_abs="2424.574465" CO2_abs="105716.963752" HC_abs="13.538131" PMx_abs="2.115119" NOx_abs="45.297603" fuel_abs="33719.044308" electricity_abs="0"/>
    </tripinfo>
    <tripinfo id="f_5.5" depart="29.50" departLane="-28_4" departPos="5.14" departPosLat="0.00" departSpeed="0.00" departDelay="19.50" arrival="57.10" arrivalLane="-0_4" arrivalPos="53.56" arrivalPosLat="0.00" arrivalSpeed="12.90" duration="27.60" routeLength="189.02" waitingTime="0.00" waitingCount="0" stopTime="0.00" timeLoss="12.31" rerouteNo="0" devices="tripinfo_f_5.5 routing_f_5.5 emissions_f_5.5" vType="vehicle.mercedes.coupe" speedFactor="0.93" vaporized="">
        <emissions CO_abs="2067.165668" CO2_abs="88789.205714" HC_abs="11.484525" PMx_abs="1.692771" NOx_abs="37.593232" fuel_abs="28319.943062" electricity_abs="0"/>
    </tripinfo>
    <tripinfo id="f_4.6" depart="32.20" departLane="-28_4" departPos="5.14" departPosLat="0.00" departSpeed="0.00" departDelay="20.20" arrival="58.90" arrivalLane="25_3" arrivalPos="64.03" arrivalPosLat="0.00" arrivalSpeed="16.25" duration="26.70" routeLength="202.19" waitingTime="0.00" waitingCount="0" stopTime="0.00" timeLoss="14.22" rerouteNo="0" devices="tripinfo_f_4.6 routing_f_4.6 emissions_f_4.6" vType="vehicle.mercedes.coupe" speedFactor="1.17" vaporized="">
        <emissions CO_abs="2194.369452" CO2_abs="102013.323764" HC_abs="12.395268" PMx_abs="1.996099" NOx_abs="43.341730" fuel_abs="32537.709753" electricity_abs="0"/>
    </tripinfo>
    <tripinfo id="f_5.6" depart="35.00" departLane="-28_4" departPos="5.14" departPosLat="0.00" departSpeed="0.00" departDelay="23.00" arrival="59.00" arrivalLane="-0_4" arrivalPos="53.56" arrivalPosLat="0.00" arrivalSpeed="13.67" duration="24.00" routeLength="189.02" waitingTime="0.00" waitingCount="0" stopTime="0.00" timeLoss="9.63" rerouteNo="0" devices="tripinfo_f_5.6 routing_f_5.6 emissions_f_5.6" vType="vehicle.mercedes.coupe" speedFactor="0.99" vaporized="">
        <emissions CO_abs="1727.785384" CO2_abs="82413.478066" HC_abs="9.788623" PMx_abs="1.547273" NOx_abs="34.659759" fuel_abs="26286.270826" electricity_abs="0"/>
    </tripinfo>
    <tripinfo id="f_1.4" depart="10.30" departLane="1_3" departPos="4.31" departPosLat="0.00" departSpeed="0.00" departDelay="2.30" arrival="61.10" arrivalLane="39_3" arrivalPos="46.43" arrivalPosLat="-0.00" arrivalSpeed="14.00" duration="50.80" routeLength="194.87" waitingTime="26.60" waitingCount="1" stopTime="0.00" timeLoss="37.03" rerouteNo="0" devices="tripinfo_f_1.4 routing_f_1.4 emissions_f_1.4" vType="vehicle.seat.leon" speedFactor="1.02" vaporized="">
        <emissions CO_abs="6624.562546" CO2_abs="175587.099870" HC_abs="34.304384" PMx_abs="3.859682" NOx_abs="77.285990" fuel_abs="56005.803693" electricity_abs="0"/>
    </tripinfo>
    <tripinfo id="f_1.6" depart="15.40" departLane="1_3" departPos="4.31" departPosLat="0.00" departSpeed="0.00" departDelay="3.40" arrival="62.10" arrivalLane="39_4" arrivalPos="46.43" arrivalPosLat="0.00" arrivalSpeed="16.03" duration="46.70" routeLength="194.87" waitingTime="22.00" waitingCount="1" stopTime="0.00" timeLoss="34.75" rerouteNo="0" devices="tripinfo_f_1.6 routing_f_1.6 emissions_f_1.6" vType="vehicle.seat.leon" speedFactor="1.18" vaporized="">
        <emissions CO_abs="6202.224461" CO2_abs="178219.080141" HC_abs="32.465257" PMx_abs="3.911175" NOx_abs="78.379240" fuel_abs="56844.987284" electricity_abs="0"/>
    </tripinfo>
    <tripinfo id="f_1.8" depart="20.50" departLane="1_3" departPos="4.31" departPosLat="0.00" departSpeed="0.00" departDelay="4.50" arrival="62.80" arrivalLane="39_3" arrivalPos="46.43" arrivalPosLat="-0.00" arrivalSpeed="14.29" duration="42.30" routeLength="194.87" waitingTime="9.90" waitingCount="1" stopTime="0.00" timeLoss="28.62" rerouteNo="0" devices="tripinfo_f_1.8 routing_f_1.8 emissions_f_1.8" vType="vehicle.seat.leon" speedFactor="1.03" vaporized="">
        <emissions CO_abs="4264.908604" CO2_abs="129561.433748" HC_abs="22.461215" PMx_abs="2.730354" NOx_abs="56.381614" fuel_abs="41325.042518" electricity_abs="0"/>
    </tripinfo>
    <tripinfo id="f_1.5" depart="12.80" departLane="1_3" departPos="4.31" departPosLat="0.00" departSpeed="0.00" departDelay="2.80" arrival="64.10" arrivalLane="39_4" arrivalPos="46.43" arrivalPosLat="0.00" arrivalSpeed="11.96" duration="51.30" routeLength="194.87" waitingTime="19.60" waitingCount="1" stopTime="0.00" timeLoss="35.15" rerouteNo="0" devices="tripinfo_f_1.5 routing_f_1.5 emissions_f_1.5" vType="vehicle.seat.leon" speedFactor="0.87" vaporized="">
        <emissions CO_abs="5835.445754" CO2_abs="151260.390369" HC_abs="30.115307" PMx_abs="3.264612" NOx_abs="66.209110" fuel_abs="48246.629895" electricity_abs="0"/>
    </tripinfo>
    <tripinfo id="f_1.9" depart="23.00" departLane="1_3" departPos="4.31" departPosLat="0.00" departSpeed="0.00" departDelay="5.00" arrival="64.40" arrivalLane="39_3" arrivalPos="46.43" arrivalPosLat="-0.00" arrivalSpeed="15.07" duration="41.40" routeLength="194.87" waitingTime="7.20" waitingCount="1" stopTime="0.00" timeLoss="28.42" rerouteNo="0" devices="tripinfo_f_1.9 routing_f_1.9 emissions_f_1.9" vType="vehicle.seat.leon" speedFactor="1.09" vaporized="">
        <emissions CO_abs="3960.348615" CO2_abs="123713.638129" HC_abs="20.937404" PMx_abs="2.566354" NOx_abs="53.571561" fuel_abs="39459.800547" electricity_abs="0"/>
    </tripinfo>
    <tripinfo id="f_1.7" depart="17.90" departLane="1_3" departPos="4.31" departPosLat="0.00" departSpeed="0.00" departDelay="3.90" arrival="65.80" arrivalLane="39_4" arrivalPos="46.43" arrivalPosLat="0.00" arrivalSpeed="14.11" duration="47.90" routeLength="194.87" waitingTime="15.10" waitingCount="1" stopTime="0.00" timeLoss="34.09" rerouteNo="0" devices="tripinfo_f_1.7 routing_f_1.7 emissions_f_1.7" vType="vehicle.seat.leon" speedFactor="1.02" vaporized="">
        <emissions CO_abs="5367.083663" CO2_abs="149670.701375" HC_abs="27.967340" PMx_abs="3.223056" NOx_abs="65.547328" fuel_abs="47739.320633" electricity_abs="0"/>
    </tripinfo>
    <tripinfo id="f_1.10" depart="25.50" departLane="1_3" departPos="4.31" departPosLat="0.00" departSpeed="0.00" departDelay="5.50" arrival="66.50" arrivalLane="39_3" arrivalPos="46.43" arrivalPosLat="-0.00" arrivalSpeed="11.81" duration="41.00" routeLength="194.87" waitingTime="5.00" waitingCount="1" stopTime="0.00" timeLoss="24.57" rerouteNo="0" devices="tripinfo_f_1.10 routing_f_1.10 emissions_f_1.10" vType="vehicle.seat.leon" speedFactor="0.85" vaporized="">
        <emissions CO_abs="3538.718446" CO2_abs="107413.694379" HC_abs="18.620725" PMx_abs="2.173258" NOx_abs="46.197135" fuel_abs="34260.880742" electricity_abs="0"/>
    </tripinfo>
    <tripinfo id="f_1.12" depart="30.50" departLane="1_3" departPos="4.31" departPosLat="0.00" departSpeed="0.00" departDelay="6.50" arrival="67.40" arrivalLane="39_4" arrivalPos="46.43" arrivalPosLat="0.00" arrivalSpeed="15.00" duration="36.90" routeLength="194.87" waitingTime="4.40" waitingCount="1" stopTime="0.00" timeLoss="23.90" rerouteNo="0" devices="tripinfo_f_1.12 routing_f_1.12 emissions_f_1.12" vType="vehicle.seat.leon" speedFactor="1.08" vaporized="">
        <emissions CO_abs="3714.002939" CO2_abs="126909.434498" HC_abs="19.907066" PMx_abs="2.640020" NOx_abs="55.012825" fuel_abs="40478.903323" electricity_abs="0"/>
    </tripinfo>
    <tripinfo id="f_1.11" depart="28.00" departLane="1_3" departPos="4.31" departPosLat="0.00" departSpeed="0.00" departDelay="6.00" arrival="68.30" arrivalLane="39_3" arrivalPos="46.43" arrivalPosLat="-0.00" arrivalSpeed="13.81" duration="40.30" routeLength="194.87" waitingTime="3.10" waitingCount="1" stopTime="0.00" timeLoss="26.21" rerouteNo="0" devices="tripinfo_f_1.11 routing_f_1.11 emissions_f_1.11" vType="vehicle.seat.leon" speedFactor="1.00" vaporized="">
        <emissions CO_abs="3463.748459" CO2_abs="110146.028099" HC_abs="18.356530" PMx_abs="2.251246" NOx_abs="47.546175" fuel_abs="35132.258503" electricity_abs="0"/>
    </tripinfo>
    <tripinfo id="f_1.13" depart="33.10" departLane="1_3" departPos="4.31" departPosLat="0.00" departSpeed="0.00" departDelay="7.10" arrival="69.40" arrivalLane="39_4" arrivalPos="46.43" arrivalPosLat="0.00" arrivalSpeed="12.18" duration="36.30" routeLength="194.87" waitingTime="0.00" waitingCount="0" stopTime="0.00" timeLoss="20.37" rerouteNo="0" devices="tripinfo_f_1.13 routing_f_1.13 emissions_f_1.13" vType="vehicle.seat.leon" speedFactor="0.88" vaporized="">
        <emissions CO_abs="2990.577774" CO2_abs="104761.761320" HC_abs="16.072536" PMx_abs="2.088087" NOx_abs="44.908214" fuel_abs="33414.753809" electricity_abs="0"/>
    </tripinfo>
    <tripinfo id="f_1.15" depart="38.20" departLane="1_3" departPos="4.31" departPosLat="0.00" departSpeed="0.00" departDelay="8.20" arrival="70.20" arrivalLane="39_3" arrivalPos="46.43" arrivalPosLat="-0.00" arrivalSpeed="13.53" duration="32.00" routeLength="194.87" waitingTime="0.00" waitingCount="0" stopTime="0.00" timeLoss="17.71" rerouteNo="0" devices="tripinfo_f_1.15 routing_f_1.15 emissions_f_1.15" vType="vehicle.seat.leon" speedFactor="0.98" vaporized="">
        <emissions CO_abs="2359.048368" CO2_abs="94932.031956" HC_abs="12.964878" PMx_abs="1.850237" NOx_abs="40.431230" fuel_abs="30279.291811" electricity_abs="0"/>
    </tripinfo>
    <tripinfo id="f_1.14" depart="35.70" departLane="1_3" departPos="4.31" departPosLat="0.00" departSpeed="0.00" departDelay="7.70" arrival="71.20" arrivalLane="39_4" arrivalPos="46.43" arrivalPosLat="0.00" arrivalSpeed="14.09" duration="35.50" routeLength="194.87" waitingTime="0.00" waitingCount="0" stopTime="0.00" timeLoss="21.76" rerouteNo="0" devices="tripinfo_f_1.14 routing_f_1.14 emissions_f_1.14" vType="vehicle.seat.leon" speedFactor="1.02" vaporized="">
        <emissions CO_abs="2742.735861" CO2_abs="101857.907646" HC_abs="14.870604" PMx_abs="2.014208" NOx_abs="43.547554" fuel_abs="32488.455260" electricity_abs="0"/>
    </tripinfo>
    <tripinfo id="f_1.17" depart="43.30" departLane="1_3" departPos="4.31" departPosLat="0.00" departSpeed="0.00" departDelay="9.30" arrival="72.20" arrivalLane="39_3" arrivalPos="46.43" arrivalPosLat="-0.00" arrivalSpeed="13.47" duration="28.90" routeLength="194.87" waitingTime="0.00" waitingCount="0" stopTime="0.00" timeLoss="14.47" rerouteNo="0" devices="tripinfo_f_1.17 routing_f_1.17 emissions_f_1.17" vType="vehicle.seat.leon" speedFactor="0.98" vaporized="">
        <emissions CO_abs="2268.732889" CO2_abs="95809.430762" HC_abs="12.570491" PMx_abs="1.878060" NOx_abs="40.853740" fuel_abs="30559.060835" electricity_abs="0"/>
    </tripinfo>
    <tripinfo id="f_1.16" depart="40.80" departLane="1_3" departPos="4.31" departPosLat="0.00" departSpeed="0.00" departDelay="8.80" arrival="73.00" arrivalLane="39_4" arrivalPos="46.43" arrivalPosLat="0.00" arrivalSpeed="14.33" duration="32.20" routeLength="194.87" waitingTime="0.00" waitingCount="0" stopTime="0.00" timeLoss="18.62" rerouteNo="0" devices="tripinfo_f_1.16 routing_f_1.16 emissions_f_1.16" vType="vehicle.seat.leon" speedFactor="1.03" vaporized="">
        <emissions CO_abs="2460.663096" CO2_abs="100440.843610" HC_abs="13.543353" PMx_abs="1.968202" NOx_abs="42.758123" fuel_abs="32036.336928" electricity_abs="0"/>
    </tripinfo>
    <tripinfo id="f_3.0" depart="0.00" departLane="-19_3" departPos="5.14" departPosLat="0.00" departSpeed="0.00" departDelay="0.00" arrival="76.50" arrivalLane="-0_4" arrivalPos="53.56" arrivalPosLat="0.00" arrivalSpeed="13.98" duration="76.50" routeLength="395.71" waitingTime="35.60" waitingCount="1" stopTime="0.00" timeLoss="46.31" rerouteNo="0" devices="tripinfo_f_3.0 routing_f_3.0 emissions_f_3.0" vType="vehicle.mercedes.coupe" speedFactor="1.01" vaporized="">
        <emissions CO_abs="8796.495887" CO2_abs="253143.674088" HC_abs="45.917280" PMx_abs="5.353821" NOx_abs="109.502892" fuel_abs="80743.272346" electricity_abs="0"/>
    </tripinfo>
    <tripinfo id="f_3.1" depart="3.40" departLane="-19_3" departPos="5.14" departPosLat="0.00" departSpeed="0.00" departDelay="1.40" arrival="76.90" arrivalLane="-0_3" arrivalPos="53.56" arrivalPosLat="-0.00" arrivalSpeed="12.26" duration="73.50" routeLength="395.71" waitingTime="25.90" waitingCount="1" stopTime="0.00" timeLoss="39.31" rerouteNo="0" devices="tripinfo_f_3.1 routing_f_3.1 emissions_f_3.1" vType="vehicle.mercedes.coupe" speedFactor="0.89" vaporized="">
        <emissions CO_abs="7285.135391" CO2_abs="217642.415602" HC_abs="38.243914" PMx_abs="4.481324" NOx_abs="93.660734" fuel_abs="69419.663292" electricity_abs="0"/>
    </tripinfo>
    <tripinfo id="f_3.3" depart="10.40" departLane="-19_3" departPos="5.14" departPosLat="0.00" departSpeed="0.00" departDelay="4.40" arrival="78.30" arrivalLane="-0_4" arrivalPos="53.56" arrivalPosLat="0.00" arrivalSpeed="13.07" duration="67.90" routeLength="395.71" waitingTime="15.60" waitingCount="1" stopTime="0.00" timeLoss="35.61" rerouteNo="0" devices="tripinfo_f_3.3 routing_f_3.3 emissions_f_3.3" vType="vehicle.mercedes.coupe" speedFactor="0.94" vaporized="">
        <emissions CO_abs="5846.720619" CO2_abs="190463.517829" HC_abs="31.026993" PMx_abs="3.810584" NOx_abs="81.147699" fuel_abs="60750.419183" electricity_abs="0"/>
    </tripinfo>