<?xml version="1.0" encoding="UTF-8"?>

<!-- generated on 2023-09-12 00:26:28 by Eclipse SUMO sumo Version 1.17.0
<configuration xmlns:xsi="http://www.w3.org/2001/XMLSchema-instance" xsi:noNamespaceSchemaLocation="http://sumo.dlr.de/xsd/sumoConfiguration.xsd">

    <input>
        <net-file value="configs/Town05/Town05.net.xml"/>
        <route-files value="configs/Town05/Town05.rou.xml"/>
    </input>

    <output>
        <queue-output value="queue.xml"/>
        <tripinfo-output value="tripinfo.xml"/>
        <collision-output value="collision.xml"/>
    </output>

    <time>
        <step-length value="0.1"/>
    </time>

    <processing>
        <lateral-resolution value="0.25"/>
        <collision.check-junctions value="true"/>
    </processing>

    <emissions>
        <device.emissions.probability value="1.0"/>
    </emissions>

    <traci_server>
        <remote-port value="3001"/>
        <num-clients value="1"/>
    </traci_server>

    <gui_only>
        <gui-settings-file value="configs/Town05/viewsettings.xml"/>
    </gui_only>

</configuration>
-->

<tripinfos xmlns:xsi="http://www.w3.org/2001/XMLSchema-instance" xsi:noNamespaceSchemaLocation="http://sumo.dlr.de/xsd/tripinfo_file.xsd">
    <tripinfo id="f_1.0" depart="0.00" departLane="1_3" departPos="4.31" departPosLat="0.00" departSpeed="0.00" departDelay="0.00" arrival="19.20" arrivalLane="39_3" arrivalPos="46.43" arrivalPosLat="0.00" arrivalSpeed="14.68" duration="19.20" routeLength="194.87" waitingTime="0.00" waitingCount="0" stopTime="0.00" timeLoss="5.92" rerouteNo="0" devices="tripinfo_f_1.0 routing_f_1.0 emissions_f_1.0" vType="vehicle.seat.leon" speedFactor="1.06" vaporized="">
        <emissions CO_abs="1790.479189" CO2_abs="99888.360251" HC_abs="10.446270" PMx_abs="1.976204" NOx_abs="42.316073" fuel_abs="31859.692452" electricity_abs="0"/>
    </tripinfo>
    <tripinfo id="f_1.1" depart="2.30" departLane="1_3" departPos="4.31" departPosLat="0.00" departSpeed="0.00" departDelay="0.30" arrival="23.60" arrivalLane="39_3" arrivalPos="46.43" arrivalPosLat="0.00" arrivalSpeed="11.52" duration="21.30" routeLength="194.87" waitingTime="0.00" waitingCount="0" stopTime="0.00" timeLoss="4.37" rerouteNo="0" devices="tripinfo_f_1.1 routing_f_1.1 emissions_f_1.1" vType="vehicle.seat.leon" speedFactor="0.83" vaporized="">
        <emissions CO_abs="1437.075470" CO2_abs="80258.806624" HC_abs="8.394058" PMx_abs="1.404485" NOx_abs="32.911521" fuel_abs="25599.002067" electricity_abs="0"/>
    </tripinfo>
    <tripinfo id="f_1.2" depart="4.70" departLane="1_3" departPos="4.31" departPosLat="0.00" departSpeed="0.00" departDelay="0.70" arrival="26.00" arrivalLane="39_3" arrivalPos="46.43" arrivalPosLat="-0.00" arrivalSpeed="15.14" duration="21.30" routeLength="194.87" waitingTime="0.00" waitingCount="0" stopTime="0.00" timeLoss="8.35" rerouteNo="0" devices="tripinfo_f_1.2 routing_f_1.2 emissions_f_1.2" vType="vehicle.seat.leon" speedFactor="1.09" vaporized="">
        <emissions CO_abs="1769.105310" CO2_abs="94677.879211" HC_abs="10.246083" PMx_abs="1.819463" NOx_abs="39.903462" fuel_abs="30197.898411" electricity_abs="0"/>
    </tripinfo>
    <tripinfo id="f_1.3" depart="7.10" departLane="1_3" departPos="4.31" departPosLat="0.00" departSpeed="0.00" departDelay="1.10" arrival="27.70" arrivalLane="39_4" arrivalPos="46.43" arrivalPosLat="0.00" arrivalSpeed="12.84" duration="20.60" routeLength="194.87" waitingTime="0.00" waitingCount="0" stopTime="0.00" timeLoss="5.45" rerouteNo="0" devices="tripinfo_f_1.3 routing_f_1.3 emissions_f_1.3" vType="vehicle.seat.leon" speedFactor="0.93" vaporized="">
        <emissions CO_abs="1536.997796" CO2_abs="85763.939568" HC_abs="8.922090" PMx_abs="1.563433" NOx_abs="35.465926" fuel_abs="27354.819903" electricity_abs="0"/>
    </tripinfo>
    <tripinfo id="f_2.1" depart="2.30" departLane="-14_3" departPos="4.31" departPosLat="0.00" departSpeed="0.00" departDelay="0.30" arrival="31.00" arrivalLane="-26_4" arrivalPos="61.99" arrivalPosLat="0.00" arrivalSpeed="14.48" duration="28.70" routeLength="206.69" waitingTime="2.60" waitingCount="1" stopTime="0.00" timeLoss="14.46" rerouteNo="0" devices="tripinfo_f_2.1 routing_f_2.1 emissions_f_2.1" vType="vehicle.seat.leon" speedFactor="1.05" vaporized="">
        <emissions CO_abs="2554.058111" CO2_abs="107761.322183" HC_abs="14.123953" PMx_abs="2.170357" NOx_abs="46.067798" fuel_abs="34371.142270" electricity_abs="0"/>
    </tripinfo>
    <tripinfo id="f_2.0" depart="0.00" departLane="-14_3" departPos="4.31" departPosLat="0.00" departSpeed="0.00" departDelay="0.00" arrival="31.40" arrivalLane="-26_3" arrivalPos="61.99" arrivalPosLat="0.00" arrivalSpeed="13.03" duration="31.40" routeLength="206.69" waitingTime="8.10" waitingCount="1" stopTime="0.00" timeLoss="15.50" rerouteNo="0" devices="tripinfo_f_2.0 routing_f_2.0 emissions_f_2.0" vType="vehicle.seat.leon" speedFactor="0.94" vaporized="">
        <emissions CO_abs="3154.474014" CO2_abs="115632.025347" HC_abs="16.991073" PMx_abs="2.285320" NOx_abs="48.957746" fuel_abs="36881.879576" electricity_abs="0"/>
    </tripinfo>
    <tripinfo id="f_2.4" depart="9.20" departLane="-14_3" departPos="4.31" departPosLat="0.00" departSpeed="0.00" departDelay="1.20" arrival="33.10" arrivalLane="-26_4" arrivalPos="61.99" arrivalPosLat="0.00" arrivalSpeed="13.99" duration="23.90" routeLength="206.69" waitingTime="0.00" waitingCount="0" stopTime="0.00" timeLoss="9.15" rerouteNo="0" devices="tripinfo_f_2.4 routing_f_2.4 emissions_f_2.4" vType="vehicle.seat.leon" speedFactor="1.01" vaporized="">
        <emissions CO_abs="1828.832427" CO2_abs="93175.776409" HC_abs="10.498055" PMx_abs="1.782857" NOx_abs="39.260172" fuel_abs="29718.861744" electricity_abs="0"/>
    </tripinfo>
    <tripinfo id="f_2.2" depart="4.60" departLane="-14_3" departPos="4.31" departPosLat="0.00" departSpeed="0.00" departDelay="0.60" arrival="33.40" arrivalLane="-26_3" arrivalPos="61.99" arrivalPosLat="-0.00" arrivalSpeed="14.25" duration="28.80" routeLength="206.69" waitingTime="0.00" waitingCount="0" stopTime="0.00" timeLoss="14.29" rerouteNo="0" devices="tripinfo_f_2.2 routing_f_2.2 emissions_f_2.2" vType="vehicle.seat.leon" speedFactor="1.03" vaporized="">
        <emissions CO_abs="1983.668352" CO2_abs="92301.553837" HC_abs="11.198842" PMx_abs="1.787383" NOx_abs="39.126170" fuel_abs="29440.104387" electricity_abs="0"/>
    </tripinfo>
    <tripinfo id="f_2.3" depart="6.90" departLane="-14_3" departPos="4.31" departPosLat="0.00" departSpeed="0.00" departDelay="0.90" arrival="35.80" arrivalLane="-26_3" arrivalPos="61.99" arrivalPosLat="-0.00" arrivalSpeed="12.18" duration="28.90" routeLength="206.69" waitingTime="0.00" waitingCount="0" stopTime="0.00" timeLoss="11.94" rerouteNo="0" devices="tripinfo_f_2.3 routing_f_2.3 emissions_f_2.3" vType="vehicle.seat.leon" speedFactor="0.88" vaporized="">
        <emissions CO_abs="1693.619521" CO2_abs="77897.694963" HC_abs="9.510086" PMx_abs="1.407347" NOx_abs="32.374462" fuel_abs="24846.038692" electricity_abs="0"/>
    </tripinfo>
    <tripinfo id="f_2.7" depart="16.40" departLane="-14_3" departPos="4.31" departPosLat="0.00" departSpeed="0.00" departDelay="2.40" arrival="37.00" arrivalLane="-26_4" arrivalPos="61.99" arrivalPosLat="0.00" arrivalSpeed="13.51" duration="20.60" routeLength="206.69" waitingTime="0.00" waitingCount="0" stopTime="0.00" timeLoss="5.29" rerouteNo="0" devices="tripinfo_f_2.7 routing_f_2.7 emissions_f_2.7" vType="vehicle.seat.leon" speedFactor="0.97" vaporized="">
        <emissions CO_abs="1480.659267" CO2_abs="84575.563729" HC_abs="8.630111" PMx_abs="1.528781" NOx_abs="34.790004" fuel_abs="26975.777610" electricity_abs="0"/>
    </tripinfo>
    <tripinfo id="f_2.5" depart="11.60" departLane="-14_3" departPos="4.31" departPosLat="0.00" departSpeed="0.00" departDelay="1.60" arrival="38.10" arrivalLane="-26_3" arrivalPos="61.99" arrivalPosLat="0.00" arrivalSpeed="12.70" duration="26.50" routeLength="206.69" waitingTime="0.00" waitingCount="0" stopTime="0.00" timeLoss="10.21" rerouteNo="0" devices="tripinfo_f_2.5 routing_f_2.5 emissions_f_2.5" vType="vehicle.seat.leon" speedFactor="0.92" vaporized="">
        <emissions CO_abs="1718.845855" CO2_abs="83811.080248" HC_abs="9.764229" PMx_abs="1.525028" NOx_abs="34.870124" fuel_abs="26732.079986" electricity_abs="0"/>
    </tripinfo>
    <tripinfo id="f_2.6" depart="14.00" departLane="-14_3" departPos="4.31" departPosLat="0.00" departSpeed="0.00" departDelay="2.00" arrival="40.10" arrivalLane="-26_3" arrivalPos="61.99" arrivalPosLat="-0.00" arrivalSpeed="16.03" duration="26.10" routeLength="206.69" waitingTime="0.00" waitingCount="0" stopTime="0.00" timeLoss="13.21" rerouteNo="0" devices="tripinfo_f_2.6 routing_f_2.6 emissions_f_2.6" vType="vehicle.seat.leon" speedFactor="1.15" vaporized="">
        <emissions CO_abs="1861.320283" CO2_abs="92032.714480" HC_abs="10.623405" PMx_abs="1.728176" NOx_abs="38.642135" fuel_abs="29354.346228" electricity_abs="0"/>
    </tripinfo>
    <tripinfo id="f_2.8" depart="18.80" departLane="-14_3" departPos="4.31" departPosLat="0.00" departSpeed="0.00" departDelay="2.80" arrival="40.20" arrivalLane="-26_4" arrivalPos="61.99" arrivalPosLat="0.00" arrivalSpeed="13.26" duration="21.40" routeLength="206.69" waitingTime="0.00" waitingCount="0" stopTime="0.00" timeLoss="5.81" rerouteNo="0" devices="tripinfo_f_2.8 routing_f_2.8 emissions_f_2.8" vType="vehicle.seat.leon" speedFactor="0.96" vaporized="">
        <emissions CO_abs="1552.617777" CO2_abs="87284.349376" HC_abs="9.051518" PMx_abs="1.593895" NOx_abs="36.138911" fuel_abs="27839.752355" electricity_abs="0"/>
    </tripinfo>
    <tripinfo id="f_2.9" depart="21.20" departLane="-14_3" departPos="4.31" departPosLat="0.00" departSpeed="0.00" departDelay="3.20" arrival="42.80" arrivalLane="-26_3" arrivalPos="61.99" arrivalPosLat="-0.00" arrivalSpeed="13.82" duration="21.60" routeLength="206.69" waitingTime="0.00" waitingCount="0" stopTime="0.00" timeLoss="6.67" rerouteNo="0" devices="tripinfo_f_2.9 routing_f_2.9 emissions_f_2.9" vType="vehicle.seat.leon" speedFactor="1.00" vaporized="">
        <emissions CO_abs="1554.610837" CO2_abs="85278.381260" HC_abs="9.019511" PMx_abs="1.582571" NOx_abs="35.484392" fuel_abs="27199.931308" electricity_abs="0"/>
    </tripinfo>
    <tripinfo id="f_5.0" depart="2.50" departLane="-28_4" departPos="5.14" departPosLat="0.00" departSpeed="0.00" departDelay="2.50" arrival="45.30" arrivalLane="-0_4" arrivalPos="53.56" arrivalPosLat="0.00" arrivalSpeed="14.28" duration="42.80" routeLength="189.02" waitingTime="21.60" waitingCount="1" stopTime="0.00" timeLoss="28.95" rerouteNo="0" devices="tripinfo_f_5.0 routing_f_5.0 emissions_f_5.0" vType="vehicle.mercedes.coupe" speedFactor="1.03" vaporized="">
        <emissions CO_abs="5474.342515" CO2_abs="153566.215398" HC_abs="28.466120" PMx_abs="3.324485" NOx_abs="66.980963" fuel_abs="48981.814104" electricity_abs="0"/>
    </tripinfo>
    <tripinfo id="f_4.0" depart="0.00" departLane="-28_4" departPos="5.14" departPosLat="0.00" departSpeed="0.00" departDelay="0.00" arrival="46.00" arrivalLane="25_3" arrivalPos="64.03" arrivalPosLat="0.00" arrivalSpeed="15.01" duration="46.00" routeLength="202.19" waitingTime="24.20" waitingCount="1" stopTime="0.00" timeLoss="32.55" rerouteNo="0" devices="tripinfo_f_4.0 routing_f_4.0 emissions_f_4.0" vType="vehicle.mercedes.coupe" speedFactor="1.08" vaporized="">
        <emissions CO_abs="6012.871488" CO2_abs="167792.054182" HC_abs="31.232245" PMx_abs="3.654423" NOx_abs="73.222603" fuel_abs="53519.314131" electricity_abs="0"/>
    </tripinfo>
    <tripinfo id="f_5.1" depart="7.50" departLane="-28_4" departPos="5.14" departPosLat="0.00" departSpeed="0.00" departDelay="5.50" arrival="48.10" arrivalLane="-0_4" arrivalPos="53.56" arrivalPosLat="0.00" arrivalSpeed="11.89" duration="40.60" routeLength="189.02" waitingTime="9.70" waitingCount="1" stopTime="0.00" timeLoss="23.94" rerouteNo="0" devices="tripinfo_f_5.1 routing_f_5.1 emissions_f_5.1" vType="vehicle.mercedes.coupe" speedFactor="0.86" vaporized="">
        <emissions CO_abs="3851.202504" CO2_abs="113784.869293" HC_abs="20.183066" PMx_abs="2.339185" NOx_abs="49.008295" fuel_abs="36293.077687" electricity_abs="0"/>
    </tripinfo>
    <tripinfo id="f_4.1" depart="5.00" departLane="-28_4" departPos="5.14" departPosLat="0.00" departSpeed="0.00" departDelay="3.00" arrival="48.30" arrivalLane="25_3" arrivalPos="64.03" arrivalPosLat="0.00" arrivalSpeed="12.99" duration="43.30" routeLength="202.19" waitingTime="12.20" waitingCount="1" stopTime="0.00" timeLoss="27.77" rerouteNo="0" devices="tripinfo_f_4.1 routing_f_4.1 emissions_f_4.1" vType="vehicle.mercedes.coupe" speedFactor="0.94" vaporized="">
        <emissions CO_abs="4383.045371" CO2_abs="128815.913832" HC_abs="22.960147" PMx_abs="2.715237" NOx_abs="55.841863" fuel_abs="41087.354755" electricity_abs="0"/>
    </tripinfo>
    <tripinfo id="f_5.2" depart="12.50" departLane="-28_4" departPos="5.14" departPosLat="0.00" departSpeed="0.00" departDelay="8.50" arrival="50.20" arrivalLane="-0_4" arrivalPos="53.56" arrivalPosLat="0.00" arrivalSpeed="13.74" duration="37.70" routeLength="189.02" waitingTime="4.90" waitingCount="1" stopTime="0.00" timeLoss="23.28" rerouteNo="0" devices="tripinfo_f_5.2 routing_f_5.2 emissions_f_5.2" vType="vehicle.mercedes.coupe" speedFactor="0.99" vaporized="">
        <emissions CO_abs="3427.999508" CO2_abs="112740.325835" HC_abs="18.248002" PMx_abs="2.318193" NOx_abs="48.650700" fuel_abs="35959.652736" electricity_abs="0"/>
    </tripinfo>
    <tripinfo id="f_4.2" depart="10.00" departLane="-28_4" departPos="5.14" departPosLat="0.00" departSpeed="0.00" departDelay="6.00" arrival="50.40" arrivalLane="25_3" arrivalPos="64.03" arrivalPosLat="0.00" arrivalSpeed="15.56" duration="40.40" routeLength="202.19" waitingTime="7.50" waitingCount="1" stopTime="0.00" timeLoss="27.36" rerouteNo="0" devices="tripinfo_f_4.2 routing_f_4.2 emissions_f_4.2" vType="vehicle.mercedes.coupe" speedFactor="1.12" vaporized="">
        <emissions CO_abs="3897.699350" CO2_abs="126973.132954" HC_abs="20.736619" PMx_abs="2.654991" NOx_abs="54.965804" fuel_abs="40499.331200" electricity_abs="0"/>
    </tripinfo>
    <tripinfo id="f_5.3" depart="17.50" departLane="-28_4" departPos="5.14" departPosLat="0.00" departSpeed="0.00" departDelay="11.50" arrival="52.10" arrivalLane="-0_4" arrivalPos="53.56" arrivalPosLat="0.00" arrivalSpeed="16.07" duration="34.60" routeLength="189.02" waitingTime="0.00" waitingCount="0" stopTime="0.00" timeLoss="22.29" rerouteNo="0" devices="tripinfo_f_5.3 routing_f_5.3 emissions_f_5.3" vType="vehicle.mercedes.coupe" speedFactor="1.16" vaporized="">
        <emissions CO_abs="3019.701454" CO2_abs="111315.831784" HC_abs="16.372048" PMx_abs="2.285495" NOx_abs="48.052445" fuel_abs="35505.066073" electricity_abs="0"/>
    </tripinfo>
    <tripinfo id="f_4.3" depart="15.00" departLane="-28_4" departPos="5.14" departPosLat="0.00" departSpeed="0.00" departDelay="9.00" arrival="52.70" arrivalLane="25_3" arrivalPos="64.03" arrivalPosLat="0.00" arrivalSpeed="12.98" duration="37.70" routeLength="202.19" waitingTime="3.20" waitingCount="1" stopTime="0.00" timeLoss="22.15" rerouteNo="0" devices="tripinfo_f_4.3 routing_f_4.3 emissions_f_4.3" vType="vehicle.mercedes.coupe" speedFactor="0.94" vaporized="">
        <emissions CO_abs="3150.817926" CO2_abs="108091.715320" HC_abs="16.839591" PMx_abs="2.162171" NOx_abs="46.170323" fuel_abs="34476.916511" electricity_abs="0"/>
    </tripinfo>
    <tripinfo id="f_4.4" depart="20.00" departLane="-28_4" departPos="5.14" departPosLat="0.00" departSpeed="0.00" departDelay="12.00" arrival="55.20" arrivalLane="25_3" arrivalPos="64.03" arrivalPosLat="0.00" arrivalSpeed="12.35" duration="35.20" routeLength="202.19" waitingTime="0.00" waitingCount="0" stopTime="0.00" timeLoss="18.77" rerouteNo="0" devices="tripinfo_f_4.4 routing_f_4.4 emissions_f_4.4" vType="vehicle.mercedes.coupe" speedFactor="0.89" vaporized="">
        <emissions CO_abs="2582.171411" CO2_abs="96832.325394" HC_abs="14.013659" PMx_abs="1.880958" NOx_abs="41.053991" fuel_abs="30885.534654" electricity_abs="0"/>
    </tripinfo>
    <tripinfo id="f_5.4" depart="22.50" departLane="-28_4" departPos="5.14" departPosLat="0.00" departSpeed="0.00" departDelay="14.50" arrival="55.40" arrivalLane="-0_4" arrivalPos="53.56" arrivalPosLat="0.00" arrivalSpeed="11.45" duration="32.90" routeLength="189.02" waitingTime="0.00" waitingCount="0" stopTime="0.00" timeLoss="15.57" rerouteNo="0" devices="tripinfo_f_5.4 routing_f_5.4 emissions_f_5.4" vType="vehicle.mercedes.coupe" speedFactor="0.83" vaporized="">
        <emissions CO_abs="2217.146410" CO2_abs="86332.290724" HC_abs="12.107506" PMx_abs="1.636398" NOx_abs="36.456866" fuel_abs="27536.439392" electricity_abs="0"/>
    </tripinfo>
    <tripinfo id="f_4.5" depart="25.00" departLane="-28_4" departPos="5.14" departPosLat="0.00" departSpeed="0.00" departDelay="15.00" arrival="57.30" arrivalLane="25_3" arrivalPos="64.03" arrivalPosLat="0.00" arrivalSpeed="15.70" duration="32.30" routeLength="202.19" waitingTime="0.00" waitingCount="0" stopTime="0.00" timeLoss="19.40" rerouteNo="0" devices="tripinfo_f_4.5 routing_f_4.5 emissions_f_4.5" vType="vehicle.mercedes.coupe" speedFactor="1.13" vaporized="">
        <emissions CO_abs="2352.691856" CO2_abs="101727.933947" HC_abs="13.101704" PMx_abs="2.002950" NOx_abs="43.327768" fuel_abs="32446.768986" electricity_abs="0"/>
    </tripinfo>
    <tripinfo id="f_5.5" depart="27.50" departLane="-28_4" departPos="5.14" departPosLat="0.00" departSpeed="0.00" departDelay="17.50" arrival="57.60" arrivalLane="-0_4" arrivalPos="53.56" arrivalPosLat="0.00" arrivalSpeed="12.92" duration="30.10" routeLength="189.02" waitingTime="0.00" waitingCount="0" stopTime="0.00" timeLoss="14.78" rerouteNo="0" devices="tripinfo_f_5.5 routing_f_5.5 emissions_f_5.5" vType="vehicle.mercedes.coupe" speedFactor="0.93" vaporized="">
        <emissions CO_abs="2122.399210" CO2_abs="87271.944219" HC_abs="11.699198" PMx_abs="1.644987" NOx_abs="36.796933" fuel_abs="27836.084086" electricity_abs="0"/>
    </tripinfo>
    <tripinfo id="f_1.6" depart="14.20" departLane="1_3" departPos="4.31" departPosLat="0.00" departSpeed="0.00" departDelay="2.20" arrival="59.70" arrivalLane="39_4" arrivalPos="46.43" arrivalPosLat="0.00" arrivalSpeed="16.34" duration="45.50" routeLength="194.87" waitingTime="22.70" waitingCount="1" stopTime="0.00" timeLoss="33.58" rerouteNo="0" devices="tripinfo_f_1.6 routing_f_1.6 emissions_f_1.6" vType="vehicle.seat.leon" speedFactor="1.18" vaporized="">
        <emissions CO_abs="6190.885682" CO2_abs="179445.678289" HC_abs="32.433777" PMx_abs="3.998598" NOx_abs="79.229152" fuel_abs="57236.120911" electricity_abs="0"/>
    </tripinfo>
    <tripinfo id="f_1.4" depart="9.40" departLane="1_3" departPos="4.31" departPosLat="0.00" departSpeed="0.00" departDelay="1.40" arrival="60.00" arrivalLane="39_3" arrivalPos="46.43" arrivalPosLat="-0.00" arrivalSpeed="14.11" duration="50.60" routeLength="194.87" waitingTime="27.20" waitingCount="1" stopTime="0.00" timeLoss="36.75" rerouteNo="0" devices="tripinfo_f_1.4 routing_f_1.4 emissions_f_1.4" vType="vehicle.seat.leon" speedFactor="1.02" vaporized="">
        <emissions CO_abs="6604.829793" CO2_abs="174485.975790" HC_abs="34.160977" PMx_abs="3.848961" NOx_abs="76.779599" fuel_abs="55654.587420" electricity_abs="0"/>
    </tripinfo>
    <tripinfo id="f_1.8" depart="19.00" departLane="1_3" departPos="4.31" departPosLat="0.00" departSpeed="0.00" departDelay="3.00" arrival="61.90" arrivalLane="39_3" arrivalPos="46.43" arrivalPosLat="-0.00" arrivalSpeed="14.28" duration="42.90" routeLength="194.87" waitingTime="9.20" waitingCount="1" stopTime="0.00" timeLoss="29.22" rerouteNo="0" devices="tripinfo_f_1.8 routing_f_1.8 emissions_f_1.8" vType="vehicle.seat.leon" speedFactor="1.03" vaporized="">
        <emissions CO_abs="4093.443035" CO2_abs="124633.441316" HC_abs="21.564115" PMx_abs="2.643775" NOx_abs="54.301478" fuel_abs="39753.181896" electricity_abs="0"/>
    </tripinfo>
    <tripinfo id="f_1.5" depart="11.80" departLane="1_3" departPos="4.31" departPosLat="0.00" departSpeed="0.00" departDelay="1.80" arrival="62.10" arrivalLane="39_4" arrivalPos="46.43" arrivalPosLat="0.00" arrivalSpeed="12.09" duration="50.30" routeLength="194.87" waitingTime="18.20" waitingCount="1" stopTime="0.00" timeLoss="34.19" rerouteNo="0" devices="tripinfo_f_1.5 routing_f_1.5 emissions_f_1.5" vType="vehicle.seat.leon" speedFactor="0.87" vaporized="">
        <emissions CO_abs="5439.298887" CO2_abs="143731.326580" HC_abs="28.124323" PMx_abs="3.086833" NOx_abs="62.767288" fuel_abs="45845.081728" electricity_abs="0"/>
    </tripinfo>
    <tripinfo id="f_1.9" depart="21.30" departLane="1_3" departPos="4.31" departPosLat="0.00" departSpeed="0.00" departDelay="3.30" arrival="63.80" arrivalLane="39_3" arrivalPos="46.43" arrivalPosLat="-0.00" arrivalSpeed="15.11" duration="42.50" routeLength="194.87" waitingTime="5.60" waitingCount="1" stopTime="0.00" timeLoss="29.52" rerouteNo="0" devices="tripinfo_f_1.9 routing_f_1.9 emissions_f_1.9" vType="vehicle.seat.leon" speedFactor="1.09" vaporized="">
        <emissions CO_abs="3580.309985" CO2_abs="112445.799627" HC_abs="18.928544" PMx_abs="2.331804" NOx_abs="48.638637" fuel_abs="35865.790334" electricity_abs="0"/>
    </tripinfo>
    <tripinfo id="f_1.7" depart="16.60" departLane="1_3" departPos="4.31" departPosLat="0.00" departSpeed="0.00" departDelay="2.60" arrival="64.10" arrivalLane="39_4" arrivalPos="46.43" arrivalPosLat="0.00" arrivalSpeed="14.15" duration="47.50" routeLength="194.87" waitingTime="14.00" waitingCount="1" stopTime="0.00" timeLoss="33.70" rerouteNo="0" devices="tripinfo_f_1.7 routing_f_1.7 emissions_f_1.7" vType="vehicle.seat.leon" speedFactor="1.02" vaporized="">
        <emissions CO_abs="5019.334928" CO2_abs="142432.713205" HC_abs="26.208136" PMx_abs="3.069490" NOx_abs="62.350240" fuel_abs="45430.618493" electricity_abs="0"/>
    </tripinfo>
    <tripinfo id="f_1.12" depart="28.40" departLane="1_3" departPos="4.31" departPosLat="0.00" departSpeed="0.00" departDelay="4.40" arrival="65.60" arrivalLane="39_3" arrivalPos="46.43" arrivalPosLat="0.00" arrivalSpeed="14.99" duration="37.20" routeLength="194.87" waitingTime="2.20" waitingCount="1" stopTime="0.00" timeLoss="24.24" rerouteNo="0" devices="tripinfo_f_1.12 routing_f_1.12 emissions_f_1.12" vType="vehicle.seat.leon" speedFactor="1.08" vaporized="">
        <emissions CO_abs="3272.664947" CO2_abs="115036.359229" HC_abs="17.613287" PMx_abs="2.401667" NOx_abs="49.881912" fuel_abs="36691.811662" electricity_abs="0"/>
    </tripinfo>
    <tripinfo id="f_1.10" depart="23.70" departLane="1_3" departPos="4.31" departPosLat="0.00" departSpeed="0.00" departDelay="3.70" arrival="66.40" arrivalLane="39_4" arrivalPos="46.43" arrivalPosLat="0.00" arrivalSpeed="11.86" duration="42.70" routeLength="194.87" waitingTime="8.30" waitingCount="1" stopTime="0.00" timeLoss="26.25" rerouteNo="0" devices="tripinfo_f_1.10 routing_f_1.10 emissions_f_1.10" vType="vehicle.seat.leon" speedFactor="0.85" vaporized="">
        <emissions CO_abs="4055.604104" CO2_abs="121962.631250" HC_abs="21.319410" PMx_abs="2.513054" NOx_abs="52.694549" fuel_abs="38901.414090" electricity_abs="0"/>
    </tripinfo>
    <tripinfo id="f_1.13" depart="30.70" departLane="1_3" departPos="4.31" departPosLat="0.00" departSpeed="0.00" departDelay="4.70" arrival="68.20" arrivalLane="39_3" arrivalPos="46.43" arrivalPosLat="0.00" arrivalSpeed="12.21" duration="37.50" routeLength="194.87" waitingTime="0.00" waitingCount="0" stopTime="0.00" timeLoss="21.51" rerouteNo="0" devices="tripinfo_f_1.13 routing_f_1.13 emissions_f_1.13" vType="vehicle.seat.leon" speedFactor="0.88" vaporized="">
        <emissions CO_abs="2638.328930" CO2_abs="93386.845366" HC_abs="14.173129" PMx_abs="1.839141" NOx_abs="39.775989" fuel_abs="29786.630467" electricity_abs="0"/>
    </tripinfo>
    <tripinfo id="f_1.11" depart="26.00" departLane="1_3" departPos="4.31" departPosLat="0.00" departSpeed="0.00" departDelay="4.00" arrival="68.50" arrivalLane="39_4" arrivalPos="46.43" arrivalPosLat="0.00" arrivalSpeed="13.81" duration="42.50" routeLength="194.87" waitingTime="5.00" waitingCount="1" stopTime="0.00" timeLoss="28.33" rerouteNo="0" devices="tripinfo_f_1.11 routing_f_1.11 emissions_f_1.11" vType="vehicle.seat.leon" speedFactor="1.00" vaporized="">
        <emissions CO_abs="3675.178444" CO2_abs="115048.382795" HC_abs="19.420097" PMx_abs="2.355866" NOx_abs="49.632933" fuel_abs="36695.950145" electricity_abs="0"/>
    </tripinfo>
    <tripinfo id="f_1.14" depart="33.10" departLane="1_3" departPos="4.31" departPosLat="0.00" departSpeed="0.00" departDelay="5.10" arrival="70.30" arrivalLane="39_3" arrivalPos="46.43" arrivalPosLat="-0.00" arrivalSpeed="14.19" duration="37.20" routeLength="194.87" waitingTime="0.00" waitingCount="0" stopTime="0.00" timeLoss="23.44" rerouteNo="0" devices="tripinfo_f_1.14 routing_f_1.14 emissions_f_1.14" vType="vehicle.seat.leon" speedFactor="1.02" vaporized="">
        <emissions CO_abs="2411.119577" CO2_abs="91341.409729" HC_abs="13.100914" PMx_abs="1.790022" NOx_abs="38.861010" fuel_abs="29134.119075" electricity_abs="0"/>
    </tripinfo>
    <tripinfo id="f_1.15" depart="35.50" departLane="1_3" departPos="4.31" departPosLat="0.00" departSpeed="0.00" departDelay="5.50" arrival="70.50" arrivalLane="39_4" arrivalPos="46.43" arrivalPosLat="0.00" arrivalSpeed="13.63" duration="35.00" routeLength="194.87" waitingTime="0.00" waitingCount="0" stopTime="0.00" timeLoss="20.76" rerouteNo="0" devices="tripinfo_f_1.15 routing_f_1.15 emissions_f_1.15" vType="vehicle.seat.leon" speedFactor="0.98" vaporized="">
        <emissions CO_abs="2907.329170" CO2_abs="107825.630019" HC_abs="15.742296" PMx_abs="2.138693" NOx_abs="46.099978" fuel_abs="34391.906565" electricity_abs="0"/>
    </tripinfo>
    <tripinfo id="f_1.16" depart="37.80" departLane="1_3" departPos="4.31" departPosLat="0.00" departSpeed="0.00" departDelay="5.80" arrival="72.40" arrivalLane="39_3" arrivalPos="46.43" arrivalPosLat="-0.00" arrivalSpeed="14.36" duration="34.60" routeLength="194.87" waitingTime="0.00" waitingCount="0" stopTime="0.00" timeLoss="21.02" rerouteNo="0" devices="tripinfo_f_1.16 routing_f_1.16 emissions_f_1.16" vType="vehicle.seat.leon" speedFactor="1.03" vaporized="">
        <emissions CO_abs="2259.335460" CO2_abs="91618.090067" HC_abs="12.399819" PMx_abs="1.806173" NOx_abs="39.039057" fuel_abs="29222.251895" electricity_abs="0"/>
    </tripinfo>
    <tripinfo id="f_1.17" depart="40.20" departLane="1_3" departPos="4.31" departPosLat="0.00" departSpeed="0.00" departDelay="6.20" arrival="72.70" arrivalLane="39_4" arrivalPos="46.43" arrivalPosLat="0.00" arrivalSpeed="13.55" duration="32.50" routeLength="194.87" waitingTime="0.00" waitingCount="0" stopTime="0.00" timeLoss="18.09" rerouteNo="0" devices="tripinfo_f_1.17 routing_f_1.17 emissions_f_1.17" vType="vehicle.seat.leon" speedFactor="0.98" vaporized="">
        <emissions CO_abs="2250.326810" CO2_abs="92543.264898" HC_abs="12.386395" PMx_abs="1.779451" NOx_abs="39.167466" fuel_abs="29517.375798" electricity_abs="0"/>
    </tripinfo>
    <tripinfo id="f_2.10" depart="23.50" departLane="-14_3" departPos="4.31" departPosLat="0.00" departSpeed="0.00" departDelay="3.50" arrival="75.80" arrivalLane="-26_3" arrivalPos="61.99" arrivalPosLat="-0.00" arrivalSpeed="16.22" duration="52.30" routeLength="206.69" waitingTime="27.40" waitingCount="1" stopTime="0.00" timeLoss="39.48" rerouteNo="0" devices="tripinfo_f_2.10 routing_f_2.10 emissions_f_2.10" vType="vehicle.seat.leon" speedFactor="1.17" vaporized="">
        <emissions CO_abs="6652.562798" CO2_abs="177191.716596" HC_abs="34.417622" PMx_abs="3.846304" NOx_abs="77.483188" fuel_abs="56517.657616" electricity_abs="0"/>
    </tripinfo>
    <tripinfo id="f_2.12" depart="28.10" departLane="-14_3" departPos="4.31" departPosLat="0.00" departSpeed="0.00" departDelay="4.10" arrival="75.80" arrivalLane="-26_4" arrivalPos="61.99" arrivalPosLat="0.00" arrivalSpeed="15.50" duration="47.70" routeLength="206.69" waitingTime="25.00" waitingCount="1" stopTime="0.00" timeLoss="34.41" rerouteNo="0" devices="tripinfo_f_2.12 routing_f_2.12 emissions_f_2.12" vType="vehicle.seat.leon" speedFactor="1.12" vaporized="">
        <emissions CO_abs="6292.789995" CO2_abs="175531.568482" HC_abs="32.737318" PMx_abs="3.858559" NOx_abs="76.946685" fuel_abs="55987.887533" electricity_abs="0"/>
    </tripinfo>
    <tripinfo id="f_2.11" depart="25.80" departLane="-14_3" departPos="4.31" departPosLat="0.00" departSpeed="0.00" departDelay="3.80" arrival="78.30" arrivalLane="-26_4" arrivalPos="61.99" arrivalPosLat="0.00" arrivalSpeed="12.46" duration="52.50" routeLength="206.69" waitingTime="19.10" waitingCount="1" stopTime="0.00" timeLoss="35.91" rerouteNo="0" devices="tripinfo_f_2.11 routing_f_2.11 emissions_f_2.11" vType="vehicle.seat.leon" speedFactor="0.90" vaporized="">
        <emissions CO_abs="5498.873016" CO2_abs="143110.815419" HC_abs="28.350287" PMx_abs="2.995742" NOx_abs="61.927456" fuel_abs="45647.304700" electricity_abs="0"/>
    </tripinfo>
    <tripinfo id="f_2.13" depart="30.50" departLane="-14_3" departPos="4.31" departPosLat="0.00" departSpeed="0.00" departDelay="4.50" arrival="78.30" arrivalLane="-26_3" arrivalPos="61.99" arrivalPosLat="-0.00" arrivalSpeed="12.59" duration="47.80" routeLength="206.69" waitingTime="14.70" waitingCount="1" stopTime="0.00" timeLoss="31.31" rerouteNo="0" devices="tripinfo_f_2.13 routing_f_2.13 emissions_f_2.13" vType="vehicle.seat.leon" speedFactor="0.91" vaporized="">
        <emissions CO_abs="4882.260371" CO2_abs="136350.558070" HC_abs="25.414047" PMx_abs="2.920662" NOx_abs="59.484173" fuel_abs="43490.715417" electricity_abs="0"/>
    </tripinfo>