<?xml version="1.0" encoding="UTF-8"?>

<!-- generated on 2023-09-17 13:09:52 by Eclipse SUMO sumo Version 1.17.0
<configuration xmlns:xsi="http://www.w3.org/2001/XMLSchema-instance"
xsi:noNamespaceSchemaLocation="http://sumo.dlr.de/xsd/sumoConfiguration.xsd">

    <input>
        <net-file value="configs/Town05/Town05.net.xml"/>
        <route-files value="configs/Town05/Town05.rou.xml"/>
    </input>

    <output>
        <queue-output value="queue.xml"/>
        <tripinfo-output value="tripinfo.xml"/>
        <collision-output value="collision.xml"/>
    </output>

    <time>
        <step-length value="0.1"/>
    </time>

    <processing>
        <lateral-resolution value="0.25"/>
        <collision.check-junctions value="true"/>
    </processing>

    <emissions>
        <device.emissions.probability value="1.0"/>
    </emissions>

    <traci_server>
        <remote-port value="3001"/>
        <num-clients value="1"/>
    </traci_server>

    <gui_only>
        <gui-settings-file value="configs/Town05/viewsettings.xml"/>
    </gui_only>

</configuration>
-->

<tripinfos xmlns:xsi="http://www.w3.org/2001/XMLSchema-instance"
    xsi:noNamespaceSchemaLocation="http://sumo.dlr.de/xsd/tripinfo_file.xsd">
    <tripinfo id="f_3.0" depart="0.00" departLane="-19_3" departPos="5.14" departPosLat="0.00"
        departSpeed="0.00" departDelay="0.00" arrival="37.40" arrivalLane="-0_4" arrivalPos="53.56"
        arrivalPosLat="0.00" arrivalSpeed="13.92" duration="37.40" routeLength="395.71"
        waitingTime="0.00" waitingCount="0" stopTime="0.00" timeLoss="7.20" rerouteNo="0"
        devices="tripinfo_f_3.0 routing_f_3.0 emissions_f_3.0" vType="vehicle.mercedes.coupe"
        speedFactor="1.01" vaporized="">
        <emissions CO_abs="2482.297831" CO2_abs="148521.584309" HC_abs="14.701610"
            PMx_abs="2.748312" NOx_abs="61.506337" fuel_abs="47371.525515" electricity_abs="0" />
    </tripinfo>
    <tripinfo id="f_3.1" depart="3.40" departLane="-19_3" departPos="5.14" departPosLat="0.00"
        departSpeed="0.00" departDelay="1.40" arrival="43.50" arrivalLane="-0_4" arrivalPos="53.56"
        arrivalPosLat="0.00" arrivalSpeed="12.30" duration="40.10" routeLength="395.71"
        waitingTime="0.00" waitingCount="0" stopTime="0.00" timeLoss="5.79" rerouteNo="0"
        devices="tripinfo_f_3.1 routing_f_3.1 emissions_f_3.1" vType="vehicle.mercedes.coupe"
        speedFactor="0.89" vaporized="">
        <emissions CO_abs="2309.533872" CO2_abs="135933.905333" HC_abs="13.656963"
            PMx_abs="2.390990" NOx_abs="55.684975" fuel_abs="43356.803309" electricity_abs="0" />
    </tripinfo>
    <tripinfo id="f_3.2" depart="6.90" departLane="-19_3" departPos="5.14" departPosLat="0.00"
        departSpeed="0.00" departDelay="2.90" arrival="45.30" arrivalLane="-0_4" arrivalPos="53.56"
        arrivalPosLat="0.00" arrivalSpeed="14.49" duration="38.40" routeLength="395.71"
        waitingTime="0.00" waitingCount="0" stopTime="0.00" timeLoss="9.24" rerouteNo="0"
        devices="tripinfo_f_3.2 routing_f_3.2 emissions_f_3.2" vType="vehicle.mercedes.coupe"
        speedFactor="1.05" vaporized="">
        <emissions CO_abs="2529.303647" CO2_abs="147132.479348" HC_abs="14.912605"
            PMx_abs="2.766997" NOx_abs="61.417885" fuel_abs="46928.452450" electricity_abs="0" />
    </tripinfo>
    <tripinfo id="f_3.3" depart="10.20" departLane="-19_3" departPos="5.14" departPosLat="0.00"
        departSpeed="0.00" departDelay="4.20" arrival="48.70" arrivalLane="-0_4" arrivalPos="53.56"
        arrivalPosLat="0.00" arrivalSpeed="13.03" duration="38.50" routeLength="395.71"
        waitingTime="0.00" waitingCount="0" stopTime="0.00" timeLoss="6.21" rerouteNo="0"
        devices="tripinfo_f_3.3 routing_f_3.3 emissions_f_3.3" vType="vehicle.mercedes.coupe"
        speedFactor="0.94" vaporized="">
        <emissions CO_abs="2320.438637" CO2_abs="139221.941014" HC_abs="13.725130"
            PMx_abs="2.480803" NOx_abs="57.055297" fuel_abs="44405.475918" electricity_abs="0" />
    </tripinfo>
    <tripinfo id="f_5.0" depart="2.60" departLane="-28_4" departPos="5.14" departPosLat="0.00"
        departSpeed="0.00" departDelay="2.60" arrival="56.60" arrivalLane="-0_4" arrivalPos="53.56"
        arrivalPosLat="0.00" arrivalSpeed="14.28" duration="54.00" routeLength="189.02"
        waitingTime="32.00" waitingCount="1" stopTime="0.00" timeLoss="40.19" rerouteNo="0"
        devices="tripinfo_f_5.0 routing_f_5.0 emissions_f_5.0" vType="vehicle.mercedes.coupe"
        speedFactor="1.03" vaporized="">
        <emissions CO_abs="7273.937507" CO2_abs="181861.814751" HC_abs="37.374945"
            PMx_abs="4.035818" NOx_abs="80.043178" fuel_abs="58007.435622" electricity_abs="0" />
    </tripinfo>
    <tripinfo id="f_4.0" depart="0.00" departLane="-28_4" departPos="5.14" departPosLat="0.00"
        departSpeed="0.00" departDelay="0.00" arrival="57.50" arrivalLane="25_3" arrivalPos="64.03"
        arrivalPosLat="0.00" arrivalSpeed="14.99" duration="57.50" routeLength="202.19"
        waitingTime="34.70" waitingCount="1" stopTime="0.00" timeLoss="44.00" rerouteNo="0"
        devices="tripinfo_f_4.0 routing_f_4.0 emissions_f_4.0" vType="vehicle.mercedes.coupe"
        speedFactor="1.08" vaporized="">
        <emissions CO_abs="7841.287009" CO2_abs="196109.992763" HC_abs="40.292744"
            PMx_abs="4.388756" NOx_abs="86.574121" fuel_abs="62552.053019" electricity_abs="0" />
    </tripinfo>
    <tripinfo id="f_5.1" depart="7.90" departLane="-28_4" departPos="5.14" departPosLat="0.00"
        departSpeed="0.00" departDelay="5.90" arrival="58.80" arrivalLane="-0_4" arrivalPos="53.56"
        arrivalPosLat="0.00" arrivalSpeed="11.89" duration="50.90" routeLength="189.02"
        waitingTime="23.50" waitingCount="1" stopTime="0.00" timeLoss="34.30" rerouteNo="0"
        devices="tripinfo_f_5.1 routing_f_5.1 emissions_f_5.1" vType="vehicle.mercedes.coupe"
        speedFactor="0.86" vaporized="">
        <emissions CO_abs="5930.406444" CO2_abs="148395.584067" HC_abs="30.480836"
            PMx_abs="3.200709" NOx_abs="64.869694" fuel_abs="47332.998094" electricity_abs="0" />
    </tripinfo>
    <tripinfo id="f_4.1" depart="5.20" departLane="-28_4" departPos="5.14" departPosLat="0.00"
        departSpeed="0.00" departDelay="3.20" arrival="59.20" arrivalLane="25_3" arrivalPos="64.03"
        arrivalPosLat="0.00" arrivalSpeed="13.02" duration="54.00" routeLength="202.19"
        waitingTime="26.50" waitingCount="1" stopTime="0.00" timeLoss="38.43" rerouteNo="0"
        devices="tripinfo_f_4.1 routing_f_4.1 emissions_f_4.1" vType="vehicle.mercedes.coupe"
        speedFactor="0.94" vaporized="">
        <emissions CO_abs="6531.891171" CO2_abs="164241.871104" HC_abs="33.566875"
            PMx_abs="3.590503" NOx_abs="71.996867" fuel_abs="52387.337175" electricity_abs="0" />
    </tripinfo>
    <tripinfo id="f_5.2" depart="13.20" departLane="-28_4" departPos="5.14" departPosLat="0.00"
        departSpeed="0.00" departDelay="9.20" arrival="60.30" arrivalLane="-0_4" arrivalPos="53.56"
        arrivalPosLat="0.00" arrivalSpeed="13.75" duration="47.10" routeLength="189.02"
        waitingTime="19.30" waitingCount="1" stopTime="0.00" timeLoss="32.70" rerouteNo="0"
        devices="tripinfo_f_5.2 routing_f_5.2 emissions_f_5.2" vType="vehicle.mercedes.coupe"
        speedFactor="0.99" vaporized="">
        <emissions CO_abs="5518.239909" CO2_abs="149390.268509" HC_abs="28.643804"
            PMx_abs="3.233961" NOx_abs="65.432796" fuel_abs="47649.963669" electricity_abs="0" />
    </tripinfo>
    <tripinfo id="f_4.2" depart="10.60" departLane="-28_4" departPos="5.14" departPosLat="0.00"
        departSpeed="0.00" departDelay="6.60" arrival="60.60" arrivalLane="25_3" arrivalPos="64.03"
        arrivalPosLat="0.00" arrivalSpeed="15.39" duration="50.00" routeLength="202.19"
        waitingTime="22.10" waitingCount="1" stopTime="0.00" timeLoss="36.98" rerouteNo="0"
        devices="tripinfo_f_4.2 routing_f_4.2 emissions_f_4.2" vType="vehicle.mercedes.coupe"
        speedFactor="1.12" vaporized="">
        <emissions CO_abs="6087.072745" CO2_abs="166361.720024" HC_abs="31.629595"
            PMx_abs="3.630411" NOx_abs="72.947193" fuel_abs="53063.164929" electricity_abs="0" />
    </tripinfo>
    <tripinfo id="f_5.3" depart="18.40" departLane="-28_4" departPos="5.14" departPosLat="0.00"
        departSpeed="0.00" departDelay="12.40" arrival="61.60" arrivalLane="-0_4" arrivalPos="53.56"
        arrivalPosLat="0.00" arrivalSpeed="15.72" duration="43.20" routeLength="189.02"
        waitingTime="15.10" waitingCount="1" stopTime="0.00" timeLoss="30.86" rerouteNo="0"
        devices="tripinfo_f_5.3 routing_f_5.3 emissions_f_5.3" vType="vehicle.mercedes.coupe"
        speedFactor="1.16" vaporized="">
        <emissions CO_abs="5038.763776" CO2_abs="147300.202861" HC_abs="26.427944"
            PMx_abs="3.188649" NOx_abs="64.558079" fuel_abs="46983.052000" electricity_abs="0" />
    </tripinfo>
    <tripinfo id="f_4.3" depart="15.80" departLane="-28_4" departPos="5.14" departPosLat="0.00"
        departSpeed="0.00" departDelay="9.80" arrival="62.30" arrivalLane="25_3" arrivalPos="64.03"
        arrivalPosLat="0.00" arrivalSpeed="12.90" duration="46.50" routeLength="202.19"
        waitingTime="17.70" waitingCount="1" stopTime="0.00" timeLoss="30.93" rerouteNo="0"
        devices="tripinfo_f_4.3 routing_f_4.3 emissions_f_4.3" vType="vehicle.mercedes.coupe"
        speedFactor="0.94" vaporized="">
        <emissions CO_abs="5272.774513" CO2_abs="145609.299484" HC_abs="27.411490"
            PMx_abs="3.126104" NOx_abs="63.547243" fuel_abs="46443.937657" electricity_abs="0" />
    </tripinfo>
    <tripinfo id="f_4.4" depart="21.00" departLane="-28_4" departPos="5.14" departPosLat="0.00"
        departSpeed="0.00" departDelay="13.00" arrival="64.30" arrivalLane="25_3" arrivalPos="64.03"
        arrivalPosLat="0.00" arrivalSpeed="12.31" duration="43.30" routeLength="202.19"
        waitingTime="13.60" waitingCount="1" stopTime="0.00" timeLoss="26.89" rerouteNo="0"
        devices="tripinfo_f_4.4 routing_f_4.4 emissions_f_4.4" vType="vehicle.mercedes.coupe"
        speedFactor="0.89" vaporized="">
        <emissions CO_abs="4648.234261" CO2_abs="134167.341699" HC_abs="24.313129"
            PMx_abs="2.843908" NOx_abs="58.403313" fuel_abs="42794.283691" electricity_abs="0" />
    </tripinfo>
    <tripinfo id="f_5.4" depart="23.70" departLane="-28_4" departPos="5.14" departPosLat="0.00"
        departSpeed="0.00" departDelay="15.70" arrival="64.30" arrivalLane="-0_4" arrivalPos="53.56"
        arrivalPosLat="0.00" arrivalSpeed="11.41" duration="40.60" routeLength="189.02"
        waitingTime="10.80" waitingCount="1" stopTime="0.00" timeLoss="23.35" rerouteNo="0"
        devices="tripinfo_f_5.4 routing_f_5.4 emissions_f_5.4" vType="vehicle.mercedes.coupe"
        speedFactor="0.83" vaporized="">
        <emissions CO_abs="4099.343903" CO2_abs="118762.854144" HC_abs="21.443440"
            PMx_abs="2.455130" NOx_abs="51.358238" fuel_abs="37880.894852" electricity_abs="0" />
    </tripinfo>
    <tripinfo id="f_4.5" depart="26.40" departLane="-28_4" departPos="5.14" departPosLat="0.00"
        departSpeed="0.00" departDelay="16.40" arrival="65.80" arrivalLane="25_3" arrivalPos="64.03"
        arrivalPosLat="0.00" arrivalSpeed="15.71" duration="39.40" routeLength="202.19"
        waitingTime="9.40" waitingCount="1" stopTime="0.00" timeLoss="26.52" rerouteNo="0"
        devices="tripinfo_f_4.5 routing_f_4.5 emissions_f_4.5" vType="vehicle.mercedes.coupe"
        speedFactor="1.13" vaporized="">
        <emissions CO_abs="4262.480983" CO2_abs="137998.340704" HC_abs="22.669272"
            PMx_abs="2.935297" NOx_abs="60.166641" fuel_abs="44015.883903" electricity_abs="0" />
    </tripinfo>
    <tripinfo id="f_5.5" depart="29.00" departLane="-28_4" departPos="5.14" departPosLat="0.00"
        departSpeed="0.00" departDelay="19.00" arrival="65.80" arrivalLane="-0_4" arrivalPos="53.56"
        arrivalPosLat="0.00" arrivalSpeed="12.91" duration="36.80" routeLength="189.02"
        waitingTime="6.70" waitingCount="1" stopTime="0.00" timeLoss="21.49" rerouteNo="0"
        devices="tripinfo_f_5.5 routing_f_5.5 emissions_f_5.5" vType="vehicle.mercedes.coupe"
        speedFactor="0.93" vaporized="">
        <emissions CO_abs="3611.340979" CO2_abs="116276.269657" HC_abs="19.174557"
            PMx_abs="2.398486" NOx_abs="50.300388" fuel_abs="37087.513304" electricity_abs="0" />
    </tripinfo>
    <tripinfo id="f_4.6" depart="31.60" departLane="-28_4" departPos="5.14" departPosLat="0.00"
        departSpeed="0.00" departDelay="19.60" arrival="67.30" arrivalLane="25_3" arrivalPos="64.03"
        arrivalPosLat="0.00" arrivalSpeed="16.20" duration="35.70" routeLength="202.19"
        waitingTime="5.40" waitingCount="1" stopTime="0.00" timeLoss="23.24" rerouteNo="0"
        devices="tripinfo_f_4.6 routing_f_4.6 emissions_f_4.6" vType="vehicle.mercedes.coupe"
        speedFactor="1.17" vaporized="">
        <emissions CO_abs="3663.637493" CO2_abs="129089.619537" HC_abs="19.731241"
            PMx_abs="2.697222" NOx_abs="55.949331" fuel_abs="41174.213118" electricity_abs="0" />
    </tripinfo>
    <tripinfo id="f_5.6" depart="34.20" departLane="-28_4" departPos="5.14" departPosLat="0.00"
        departSpeed="0.00" departDelay="22.20" arrival="67.30" arrivalLane="-0_4" arrivalPos="53.56"
        arrivalPosLat="0.00" arrivalSpeed="13.70" duration="33.10" routeLength="189.02"
        waitingTime="2.60" waitingCount="1" stopTime="0.00" timeLoss="18.72" rerouteNo="0"
        devices="tripinfo_f_5.6 routing_f_5.6 emissions_f_5.6" vType="vehicle.mercedes.coupe"
        speedFactor="0.99" vaporized="">
        <emissions CO_abs="3020.698436" CO2_abs="108465.563795" HC_abs="16.296530"
            PMx_abs="2.184033" NOx_abs="46.588341" fuel_abs="34596.046003" electricity_abs="0" />
    </tripinfo>
    <tripinfo id="f_4.7" depart="36.90" departLane="-28_4" departPos="5.14" departPosLat="0.00"
        departSpeed="0.00" departDelay="22.90" arrival="69.00" arrivalLane="25_3" arrivalPos="64.03"
        arrivalPosLat="0.00" arrivalSpeed="15.20" duration="32.10" routeLength="202.19"
        waitingTime="1.10" waitingCount="1" stopTime="0.00" timeLoss="18.89" rerouteNo="0"
        devices="tripinfo_f_4.7 routing_f_4.7 emissions_f_4.7" vType="vehicle.mercedes.coupe"
        speedFactor="1.10" vaporized="">
        <emissions CO_abs="2927.621891" CO2_abs="112281.304716" HC_abs="15.968668"
            PMx_abs="2.283064" NOx_abs="48.270412" fuel_abs="35812.964046" electricity_abs="0" />
    </tripinfo>
    <tripinfo id="f_2.1" depart="2.50" departLane="-14_3" departPos="4.31" departPosLat="0.00"
        departSpeed="0.00" departDelay="0.50" arrival="105.50" arrivalLane="-26_4"
        arrivalPos="61.99" arrivalPosLat="0.00" arrivalSpeed="14.48" duration="103.00"
        routeLength="206.69" waitingTime="74.60" waitingCount="2" stopTime="0.00" timeLoss="88.73"
        rerouteNo="0" devices="tripinfo_f_2.1 routing_f_2.1 emissions_f_2.1"
        vType="vehicle.seat.leon" speedFactor="1.05" vaporized="">
        <emissions CO_abs="14923.381458" CO2_abs="311031.101924" HC_abs="75.243832"
            PMx_abs="7.246382" NOx_abs="139.262182" fuel_abs="99209.017926" electricity_abs="0" />
    </tripinfo>
    <tripinfo id="f_2.0" depart="0.00" departLane="-14_3" departPos="4.31" departPosLat="0.00"
        departSpeed="0.00" departDelay="0.00" arrival="105.70" arrivalLane="-26_3"
        arrivalPos="61.99" arrivalPosLat="0.00" arrivalSpeed="13.03" duration="105.70"
        routeLength="206.69" waitingTime="78.50" waitingCount="2" stopTime="0.00" timeLoss="89.84"
        rerouteNo="0" devices="tripinfo_f_2.0 routing_f_2.0 emissions_f_2.0"
        vType="vehicle.seat.leon" speedFactor="0.94" vaporized="">
        <emissions CO_abs="15289.481671" CO2_abs="311056.517177" HC_abs="76.892348"
            PMx_abs="7.231704" NOx_abs="139.145346" fuel_abs="99217.376465" electricity_abs="0" />
    </tripinfo>
    <tripinfo id="f_2.2" depart="5.00" departLane="-14_3" departPos="4.31" departPosLat="0.00"
        departSpeed="0.00" departDelay="1.00" arrival="106.80" arrivalLane="-26_4"
        arrivalPos="61.99" arrivalPosLat="0.00" arrivalSpeed="14.25" duration="101.80"
        routeLength="206.69" waitingTime="67.20" waitingCount="2" stopTime="0.00" timeLoss="87.29"
        rerouteNo="0" devices="tripinfo_f_2.2 routing_f_2.2 emissions_f_2.2"
        vType="vehicle.seat.leon" speedFactor="1.03" vaporized="">
        <emissions CO_abs="14016.400744" CO2_abs="289009.770337" HC_abs="70.597794"
            PMx_abs="6.714368" NOx_abs="129.270065" fuel_abs="92185.032652" electricity_abs="0" />
    </tripinfo>
    <tripinfo id="f_2.3" depart="7.50" departLane="-14_3" departPos="4.31" departPosLat="0.00"
        departSpeed="0.00" departDelay="1.50" arrival="107.30" arrivalLane="-26_3"
        arrivalPos="61.99" arrivalPosLat="-0.00" arrivalSpeed="12.14" duration="99.80"
        routeLength="206.69" waitingTime="64.80" waitingCount="2" stopTime="0.00" timeLoss="82.80"
        rerouteNo="0" devices="tripinfo_f_2.3 routing_f_2.3 emissions_f_2.3"
        vType="vehicle.seat.leon" speedFactor="0.88" vaporized="">
        <emissions CO_abs="13400.989484" CO2_abs="272159.278330" HC_abs="67.378745"
            PMx_abs="6.272656" NOx_abs="121.404368" fuel_abs="86810.443309" electricity_abs="0" />
    </tripinfo>
    <tripinfo id="f_2.5" depart="12.60" departLane="-14_3" departPos="4.31" departPosLat="0.00"
        departSpeed="0.00" departDelay="2.60" arrival="108.40" arrivalLane="-26_4"
        arrivalPos="61.99" arrivalPosLat="0.00" arrivalSpeed="12.63" duration="95.80"
        routeLength="206.69" waitingTime="59.60" waitingCount="2" stopTime="0.00" timeLoss="79.55"
        rerouteNo="0" devices="tripinfo_f_2.5 routing_f_2.5 emissions_f_2.5"
        vType="vehicle.seat.leon" speedFactor="0.92" vaporized="">
        <emissions CO_abs="12689.043002" CO2_abs="260702.802663" HC_abs="63.877861"
            PMx_abs="6.006785" NOx_abs="116.259642" fuel_abs="83156.089083" electricity_abs="0" />
    </tripinfo>
    <tripinfo id="f_2.4" depart="10.00" departLane="-14_3" departPos="4.31" departPosLat="0.00"
        departSpeed="0.00" departDelay="2.00" arrival="108.70" arrivalLane="-26_3"
        arrivalPos="61.99" arrivalPosLat="-0.00" arrivalSpeed="13.93" duration="98.70"
        routeLength="206.69" waitingTime="61.30" waitingCount="2" stopTime="0.00" timeLoss="83.88"
        rerouteNo="0" devices="tripinfo_f_2.4 routing_f_2.4 emissions_f_2.4"
        vType="vehicle.seat.leon" speedFactor="1.01" vaporized="">
        <emissions CO_abs="12962.387285" CO2_abs="265184.688537" HC_abs="65.246627"
            PMx_abs="6.119115" NOx_abs="118.386549" fuel_abs="84585.694659" electricity_abs="0" />
    </tripinfo>
    <tripinfo id="f_2.6" depart="48.80" departLane="-14_3" departPos="4.31" departPosLat="0.00"
        departSpeed="0.00" departDelay="36.80" arrival="109.80" arrivalLane="-26_4"
        arrivalPos="61.99" arrivalPosLat="0.00" arrivalSpeed="15.45" duration="61.00"
        routeLength="206.69" waitingTime="28.40" waitingCount="1" stopTime="0.00" timeLoss="48.06"
        rerouteNo="0" devices="tripinfo_f_2.6 routing_f_2.6 emissions_f_2.6"
        vType="vehicle.seat.leon" speedFactor="1.15" vaporized="">
        <emissions CO_abs="7493.114545" CO2_abs="185646.123096" HC_abs="38.485321"
            PMx_abs="4.139289" NOx_abs="82.022255" fuel_abs="59214.509508" electricity_abs="0" />
    </tripinfo>
    <tripinfo id="f_2.7" depart="52.00" departLane="-14_3" departPos="4.31" departPosLat="0.00"
        departSpeed="0.00" departDelay="38.00" arrival="110.10" arrivalLane="-26_3"
        arrivalPos="61.99" arrivalPosLat="-0.00" arrivalSpeed="13.48" duration="58.10"
        routeLength="206.69" waitingTime="28.10" waitingCount="1" stopTime="0.00" timeLoss="42.75"
        rerouteNo="0" devices="tripinfo_f_2.7 routing_f_2.7 emissions_f_2.7"
        vType="vehicle.seat.leon" speedFactor="0.97" vaporized="">
        <emissions CO_abs="7104.433867" CO2_abs="178231.662133" HC_abs="36.529568"
            PMx_abs="3.924625" NOx_abs="78.418201" fuel_abs="56849.559242" electricity_abs="0" />
    </tripinfo>
    <tripinfo id="f_2.8" depart="54.40" departLane="-14_3" departPos="4.31" departPosLat="0.00"
        departSpeed="0.00" departDelay="38.40" arrival="111.60" arrivalLane="-26_3"
        arrivalPos="61.99" arrivalPosLat="0.00" arrivalSpeed="13.17" duration="57.20"
        routeLength="206.69" waitingTime="26.20" waitingCount="1" stopTime="0.00" timeLoss="41.59"
        rerouteNo="0" devices="tripinfo_f_2.8 routing_f_2.8 emissions_f_2.8"
        vType="vehicle.seat.leon" speedFactor="0.96" vaporized="">
        <emissions CO_abs="6841.127485" CO2_abs="172530.899487" HC_abs="35.194980"
            PMx_abs="3.799229" NOx_abs="75.930913" fuel_abs="55031.193021" electricity_abs="0" />
    </tripinfo>
    <tripinfo id="f_2.11" depart="61.90" departLane="-14_3" departPos="4.31" departPosLat="0.00"
        departSpeed="0.00" departDelay="39.90" arrival="111.70" arrivalLane="-26_4"
        arrivalPos="61.99" arrivalPosLat="0.00" arrivalSpeed="12.48" duration="49.80"
        routeLength="206.69" waitingTime="12.10" waitingCount="1" stopTime="0.00" timeLoss="33.21"
        rerouteNo="0" devices="tripinfo_f_2.11 routing_f_2.11 emissions_f_2.11"
        vType="vehicle.seat.leon" speedFactor="0.90" vaporized="">
        <emissions CO_abs="4933.715295" CO2_abs="138097.698410" HC_abs="25.703919"
            PMx_abs="2.952150" NOx_abs="60.340999" fuel_abs="44047.979517" electricity_abs="0" />
    </tripinfo>
    <tripinfo id="f_2.9" depart="56.90" departLane="-14_3" departPos="4.31" departPosLat="0.00"
        departSpeed="0.00" departDelay="38.90" arrival="113.10" arrivalLane="-26_3"
        arrivalPos="61.99" arrivalPosLat="-0.00" arrivalSpeed="13.76" duration="56.20"
        routeLength="206.69" waitingTime="24.50" waitingCount="1" stopTime="0.00" timeLoss="41.25"
        rerouteNo="0" devices="tripinfo_f_2.9 routing_f_2.9 emissions_f_2.9"
        vType="vehicle.seat.leon" speedFactor="1.00" vaporized="">
        <emissions CO_abs="6609.778704" CO2_abs="168132.516304" HC_abs="34.028360"
            PMx_abs="3.695268" NOx_abs="73.945395" fuel_abs="53628.235264" electricity_abs="0" />
    </tripinfo>
    <tripinfo id="f_2.13" depart="66.80" departLane="-14_3" departPos="4.31" departPosLat="0.00"
        departSpeed="0.00" departDelay="40.80" arrival="113.50" arrivalLane="-26_4"
        arrivalPos="61.99" arrivalPosLat="0.00" arrivalSpeed="12.49" duration="46.70"
        routeLength="206.69" waitingTime="10.90" waitingCount="2" stopTime="0.00" timeLoss="30.26"
        rerouteNo="0" devices="tripinfo_f_2.13 routing_f_2.13 emissions_f_2.13"
        vType="vehicle.seat.leon" speedFactor="0.91" vaporized="">
        <emissions CO_abs="4623.080793" CO2_abs="133263.795540" HC_abs="24.162944"
            PMx_abs="2.779219" NOx_abs="57.786926" fuel_abs="42506.136187" electricity_abs="0" />
    </tripinfo>
    <tripinfo id="f_2.10" depart="59.40" departLane="-14_3" departPos="4.31" departPosLat="0.00"
        departSpeed="0.00" departDelay="39.40" arrival="114.60" arrivalLane="-26_3"
        arrivalPos="61.99" arrivalPosLat="0.00" arrivalSpeed="16.23" duration="55.20"
        routeLength="206.69" waitingTime="22.90" waitingCount="1" stopTime="0.00" timeLoss="42.39"
        rerouteNo="0" devices="tripinfo_f_2.10 routing_f_2.10 emissions_f_2.10"
        vType="vehicle.seat.leon" speedFactor="1.17" vaporized="">
        <emissions CO_abs="6585.589048" CO2_abs="174643.637729" HC_abs="34.101973"
            PMx_abs="3.859160" NOx_abs="76.969812" fuel_abs="55704.850209" electricity_abs="0" />
    </tripinfo>
    <tripinfo id="f_2.14" depart="69.30" departLane="-14_3" departPos="4.31" departPosLat="0.00"
        departSpeed="0.00" departDelay="41.30" arrival="115.00" arrivalLane="-26_4"
        arrivalPos="61.99" arrivalPosLat="0.00" arrivalSpeed="13.41" duration="45.70"
        routeLength="206.69" waitingTime="9.20" waitingCount="1" stopTime="0.00" timeLoss="30.41"
        rerouteNo="0" devices="tripinfo_f_2.14 routing_f_2.14 emissions_f_2.14"
        vType="vehicle.seat.leon" speedFactor="0.97" vaporized="">
        <emissions CO_abs="4263.138379" CO2_abs="125483.497032" HC_abs="22.312574"
            PMx_abs="2.565703" NOx_abs="54.039818" fuel_abs="40024.513167" electricity_abs="0" />
    </tripinfo>
    <tripinfo id="f_2.12" depart="64.30" departLane="-14_3" departPos="4.31" departPosLat="0.00"
        departSpeed="0.00" departDelay="40.30" arrival="116.30" arrivalLane="-26_3"
        arrivalPos="61.99" arrivalPosLat="-0.00" arrivalSpeed="15.54" duration="52.00"
        routeLength="206.69" waitingTime="16.00" waitingCount="1" stopTime="0.00" timeLoss="38.63"
        rerouteNo="0" devices="tripinfo_f_2.12 routing_f_2.12 emissions_f_2.12"
        vType="vehicle.seat.leon" speedFactor="1.12" vaporized="">
        <emissions CO_abs="5618.116733" CO2_abs="156058.086216" HC_abs="29.250286"
            PMx_abs="3.371765" NOx_abs="68.310902" fuel_abs="49776.662743" electricity_abs="0" />
    </tripinfo>
    <tripinfo id="f_2.15" depart="71.90" departLane="-14_3" departPos="4.31" departPosLat="0.00"
        departSpeed="0.00" departDelay="41.90" arrival="116.60" arrivalLane="-26_4"
        arrivalPos="61.99" arrivalPosLat="0.00" arrivalSpeed="14.23" duration="44.70"
        routeLength="206.69" waitingTime="7.20" waitingCount="2" stopTime="0.00" timeLoss="30.25"
        rerouteNo="0" devices="tripinfo_f_2.15 routing_f_2.15 emissions_f_2.15"
        vType="vehicle.seat.leon" speedFactor="1.03" vaporized="">
        <emissions CO_abs="4381.087578" CO2_abs="133783.794757" HC_abs="23.070893"
            PMx_abs="2.806274" NOx_abs="58.105188" fuel_abs="42671.810999" electricity_abs="0" />
    </tripinfo>
    <tripinfo id="f_2.16" depart="74.40" departLane="-14_3" departPos="4.31" departPosLat="0.00"
        departSpeed="0.00" departDelay="42.40" arrival="118.40" arrivalLane="-26_4"
        arrivalPos="61.99" arrivalPosLat="0.00" arrivalSpeed="13.74" duration="44.00"
        routeLength="206.69" waitingTime="7.10" waitingCount="2" stopTime="0.00" timeLoss="29.08"
        rerouteNo="0" devices="tripinfo_f_2.16 routing_f_2.16 emissions_f_2.16"
        vType="vehicle.seat.leon" speedFactor="1.00" vaporized="">
        <emissions CO_abs="4267.818743" CO2_abs="130484.805322" HC_abs="22.466496"
            PMx_abs="2.693754" NOx_abs="56.424826" fuel_abs="41619.604317" electricity_abs="0" />
    </tripinfo>
    <tripinfo id="f_2.18" depart="79.40" departLane="-14_3" departPos="4.31" departPosLat="0.00"
        departSpeed="0.00" departDelay="43.40" arrival="118.90" arrivalLane="-26_3"
        arrivalPos="61.99" arrivalPosLat="-0.00" arrivalSpeed="12.33" duration="39.50"
        routeLength="206.69" waitingTime="5.20" waitingCount="1" stopTime="0.00" timeLoss="22.80"
        rerouteNo="0" devices="tripinfo_f_2.18 routing_f_2.18 emissions_f_2.18"
        vType="vehicle.seat.leon" speedFactor="0.89" vaporized="">
        <emissions CO_abs="3556.572917" CO2_abs="115628.831014" HC_abs="18.897219"
            PMx_abs="2.350277" NOx_abs="49.798784" fuel_abs="36881.022690" electricity_abs="0" />
    </tripinfo>
    <tripinfo id="f_2.17" depart="76.90" departLane="-14_3" departPos="4.31" departPosLat="0.00"
        departSpeed="0.00" departDelay="42.90" arrival="120.20" arrivalLane="-26_4"
        arrivalPos="61.99" arrivalPosLat="0.00" arrivalSpeed="13.90" duration="43.30"
        routeLength="206.69" waitingTime="4.10" waitingCount="1" stopTime="0.00" timeLoss="28.37"
        rerouteNo="0" devices="tripinfo_f_2.17 routing_f_2.17 emissions_f_2.17"
        vType="vehicle.seat.leon" speedFactor="1.00" vaporized="">
        <emissions CO_abs="3742.987315" CO2_abs="118471.353228" HC_abs="19.783979"
            PMx_abs="2.388959" NOx_abs="50.807151" fuel_abs="37787.760865" electricity_abs="0" />
    </tripinfo>
    <tripinfo id="f_1.0" depart="0.00" departLane="1_3" departPos="4.31" departPosLat="0.00"
        departSpeed="0.00" departDelay="0.00" arrival="152.40" arrivalLane="39_3" arrivalPos="46.43"
        arrivalPosLat="0.00" arrivalSpeed="14.69" duration="152.40" routeLength="194.87"
        waitingTime="129.00" waitingCount="1" stopTime="0.00" timeLoss="139.13" rerouteNo="0"
        devices="tripinfo_f_1.0 routing_f_1.0 emissions_f_1.0" vType="vehicle.seat.leon"
        speedFactor="1.06" vaporized="">
        <emissions CO_abs="23521.630511" CO2_abs="448726.043904" HC_abs="117.630964"
            PMx_abs="10.715972" NOx_abs="202.449441" fuel_abs="143130.301851" electricity_abs="0" />
    </tripinfo>
    <tripinfo id="f_1.1" depart="2.50" departLane="1_3" departPos="4.31" departPosLat="0.00"
        departSpeed="0.00" departDelay="0.50" arrival="152.90" arrivalLane="39_4" arrivalPos="46.43"
        arrivalPosLat="0.00" arrivalSpeed="11.51" duration="150.40" routeLength="194.87"
        waitingTime="122.50" waitingCount="1" stopTime="0.00" timeLoss="133.49" rerouteNo="0"
        devices="tripinfo_f_1.1 routing_f_1.1 emissions_f_1.1" vType="vehicle.seat.leon"
        speedFactor="0.83" vaporized="">
        <emissions CO_abs="22350.233000" CO2_abs="415242.214111" HC_abs="111.524142"
            PMx_abs="9.912545" NOx_abs="187.470379" fuel_abs="132450.324693" electricity_abs="0" />
    </tripinfo>
    <tripinfo id="f_1.4" depart="10.00" departLane="1_3" departPos="4.31" departPosLat="0.00"
        departSpeed="0.00" departDelay="2.00" arrival="153.70" arrivalLane="39_3" arrivalPos="46.43"
        arrivalPosLat="-0.00" arrivalSpeed="14.07" duration="143.70" routeLength="194.87"
        waitingTime="113.60" waitingCount="1" stopTime="0.00" timeLoss="129.88" rerouteNo="0"