<?xml version="1.0" encoding="UTF-8"?>

<!-- generated on 2023-09-13 22:06:28 by Eclipse SUMO sumo Version 1.17.0
<configuration xmlns:xsi="http://www.w3.org/2001/XMLSchema-instance" xsi:noNamespaceSchemaLocation="http://sumo.dlr.de/xsd/sumoConfiguration.xsd">

    <input>
        <net-file value="configs/Town05/Town05.net.xml"/>
        <route-files value="configs/Town05/Town05.rou.xml"/>
    </input>

    <output>
        <queue-output value="queue.xml"/>
        <tripinfo-output value="tripinfo.xml"/>
        <collision-output value="collision.xml"/>
    </output>

    <time>
        <step-length value="0.1"/>
    </time>

    <processing>
        <lateral-resolution value="0.25"/>
        <collision.check-junctions value="true"/>
    </processing>

    <emissions>
        <device.emissions.probability value="1.0"/>
    </emissions>

    <traci_server>
        <remote-port value="3001"/>
        <num-clients value="1"/>
    </traci_server>

    <gui_only>
        <gui-settings-file value="configs/Town05/viewsettings.xml"/>
    </gui_only>

</configuration>
-->

<tripinfos xmlns:xsi="http://www.w3.org/2001/XMLSchema-instance" xsi:noNamespaceSchemaLocation="http://sumo.dlr.de/xsd/tripinfo_file.xsd">
    <tripinfo id="f_1.0" depart="0.00" departLane="1_3" departPos="4.31" departPosLat="0.00" departSpeed="0.00" departDelay="0.00" arrival="18.90" arrivalLane="39_3" arrivalPos="46.43" arrivalPosLat="0.00" arrivalSpeed="14.71" duration="18.90" routeLength="194.87" waitingTime="0.00" waitingCount="0" stopTime="0.00" timeLoss="5.64" rerouteNo="0" devices="tripinfo_f_1.0 routing_f_1.0 emissions_f_1.0" vType="vehicle.seat.leon" speedFactor="1.06" vaporized="">
        <emissions CO_abs="1768.487027" CO2_abs="100212.857807" HC_abs="10.311484" PMx_abs="1.971869" NOx_abs="42.378771" fuel_abs="31963.182221" electricity_abs="0"/>
    </tripinfo>
    <tripinfo id="f_1.1" depart="2.30" departLane="1_3" departPos="4.31" departPosLat="0.00" departSpeed="0.00" departDelay="0.30" arrival="23.00" arrivalLane="39_3" arrivalPos="46.43" arrivalPosLat="0.00" arrivalSpeed="11.53" duration="20.70" routeLength="194.87" waitingTime="0.00" waitingCount="0" stopTime="0.00" timeLoss="3.76" rerouteNo="0" devices="tripinfo_f_1.1 routing_f_1.1 emissions_f_1.1" vType="vehicle.seat.leon" speedFactor="0.83" vaporized="">
        <emissions CO_abs="1396.700212" CO2_abs="82032.560772" HC_abs="8.259913" PMx_abs="1.410617" NOx_abs="33.428782" fuel_abs="26164.736939" electricity_abs="0"/>
    </tripinfo>
    <tripinfo id="f_1.2" depart="4.60" departLane="1_3" departPos="4.31" departPosLat="0.00" departSpeed="0.00" departDelay="0.60" arrival="24.20" arrivalLane="39_3" arrivalPos="46.43" arrivalPosLat="-0.00" arrivalSpeed="15.13" duration="19.60" routeLength="194.87" waitingTime="0.00" waitingCount="0" stopTime="0.00" timeLoss="6.65" rerouteNo="0" devices="tripinfo_f_1.2 routing_f_1.2 emissions_f_1.2" vType="vehicle.seat.leon" speedFactor="1.09" vaporized="">
        <emissions CO_abs="1945.633798" CO2_abs="102021.927665" HC_abs="11.292857" PMx_abs="2.142145" NOx_abs="44.329586" fuel_abs="32540.126885" electricity_abs="0"/>
    </tripinfo>
    <tripinfo id="f_1.3" depart="6.90" departLane="1_3" departPos="4.31" departPosLat="0.00" departSpeed="0.00" departDelay="0.90" arrival="26.70" arrivalLane="39_3" arrivalPos="46.43" arrivalPosLat="0.00" arrivalSpeed="12.86" duration="19.80" routeLength="194.87" waitingTime="0.00" waitingCount="0" stopTime="0.00" timeLoss="4.59" rerouteNo="0" devices="tripinfo_f_1.3 routing_f_1.3 emissions_f_1.3" vType="vehicle.seat.leon" speedFactor="0.93" vaporized="">
        <emissions CO_abs="1525.052943" CO2_abs="88134.050578" HC_abs="8.924423" PMx_abs="1.623583" NOx_abs="36.565650" fuel_abs="28110.724169" electricity_abs="0"/>
    </tripinfo>
    <tripinfo id="f_5.0" depart="2.40" departLane="-28_4" departPos="5.14" departPosLat="0.00" departSpeed="0.00" departDelay="2.40" arrival="30.20" arrivalLane="-0_4" arrivalPos="53.56" arrivalPosLat="0.00" arrivalSpeed="14.30" duration="27.80" routeLength="189.02" waitingTime="6.70" waitingCount="1" stopTime="0.00" timeLoss="13.97" rerouteNo="0" devices="tripinfo_f_5.0 routing_f_5.0 emissions_f_5.0" vType="vehicle.mercedes.coupe" speedFactor="1.03" vaporized="">
        <emissions CO_abs="3010.305005" CO2_abs="115532.204751" HC_abs="16.311635" PMx_abs="2.342711" NOx_abs="49.341049" fuel_abs="36849.870888" electricity_abs="0"/>
    </tripinfo>
    <tripinfo id="f_4.0" depart="0.00" departLane="-28_4" departPos="5.14" departPosLat="0.00" departSpeed="0.00" departDelay="0.00" arrival="30.90" arrivalLane="25_3" arrivalPos="64.03" arrivalPosLat="0.00" arrivalSpeed="15.02" duration="30.90" routeLength="202.19" waitingTime="9.20" waitingCount="1" stopTime="0.00" timeLoss="17.43" rerouteNo="0" devices="tripinfo_f_4.0 routing_f_4.0 emissions_f_4.0" vType="vehicle.mercedes.coupe" speedFactor="1.08" vaporized="">
        <emissions CO_abs="3527.261856" CO2_abs="129030.867318" HC_abs="18.951482" PMx_abs="2.664213" NOx_abs="55.337690" fuel_abs="41155.422731" electricity_abs="0"/>
    </tripinfo>
    <tripinfo id="f_5.1" depart="7.30" departLane="-28_4" departPos="5.14" departPosLat="0.00" departSpeed="0.00" departDelay="5.30" arrival="32.30" arrivalLane="-0_4" arrivalPos="53.56" arrivalPosLat="0.00" arrivalSpeed="11.88" duration="25.00" routeLength="189.02" waitingTime="0.40" waitingCount="1" stopTime="0.00" timeLoss="8.32" rerouteNo="0" devices="tripinfo_f_5.1 routing_f_5.1 emissions_f_5.1" vType="vehicle.mercedes.coupe" speedFactor="0.86" vaporized="">
        <emissions CO_abs="1845.975025" CO2_abs="86777.420549" HC_abs="10.404582" PMx_abs="1.560865" NOx_abs="35.879032" fuel_abs="27678.284718" electricity_abs="0"/>
    </tripinfo>
    <tripinfo id="f_4.1" depart="4.80" departLane="-28_4" departPos="5.14" departPosLat="0.00" departSpeed="0.00" departDelay="2.80" arrival="32.40" arrivalLane="25_3" arrivalPos="64.03" arrivalPosLat="-0.00" arrivalSpeed="13.01" duration="27.60" routeLength="202.19" waitingTime="3.20" waitingCount="1" stopTime="0.00" timeLoss="12.02" rerouteNo="0" devices="tripinfo_f_4.1 routing_f_4.1 emissions_f_4.1" vType="vehicle.mercedes.coupe" speedFactor="0.94" vaporized="">
        <emissions CO_abs="2376.567400" CO2_abs="101602.758568" HC_abs="13.087889" PMx_abs="1.922336" NOx_abs="42.475311" fuel_abs="32406.958438" electricity_abs="0"/>
    </tripinfo>
    <tripinfo id="f_5.2" depart="12.10" departLane="-28_4" departPos="5.14" departPosLat="0.00" departSpeed="0.00" departDelay="8.10" arrival="33.30" arrivalLane="-0_4" arrivalPos="53.56" arrivalPosLat="0.00" arrivalSpeed="13.75" duration="21.20" routeLength="189.02" waitingTime="0.00" waitingCount="0" stopTime="0.00" timeLoss="6.80" rerouteNo="0" devices="tripinfo_f_5.2 routing_f_5.2 emissions_f_5.2" vType="vehicle.mercedes.coupe" speedFactor="0.99" vaporized="">
        <emissions CO_abs="1699.677428" CO2_abs="90270.434570" HC_abs="9.809957" PMx_abs="1.706933" NOx_abs="37.890389" fuel_abs="28792.163689" electricity_abs="0"/>
    </tripinfo>
    <tripinfo id="f_4.2" depart="9.70" departLane="-28_4" departPos="5.14" departPosLat="0.00" departSpeed="0.00" departDelay="5.70" arrival="33.40" arrivalLane="25_3" arrivalPos="64.03" arrivalPosLat="-0.00" arrivalSpeed="15.54" duration="23.70" routeLength="202.19" waitingTime="0.00" waitingCount="0" stopTime="0.00" timeLoss="10.68" rerouteNo="0" devices="tripinfo_f_4.2 routing_f_4.2 emissions_f_4.2" vType="vehicle.mercedes.coupe" speedFactor="1.12" vaporized="">
        <emissions CO_abs="2158.993522" CO2_abs="109294.141982" HC_abs="12.371993" PMx_abs="2.203429" NOx_abs="46.728837" fuel_abs="34859.772919" electricity_abs="0"/>
    </tripinfo>
    <tripinfo id="f_5.3" depart="17.10" departLane="-28_4" departPos="5.14" departPosLat="0.00" departSpeed="0.00" departDelay="11.10" arrival="35.00" arrivalLane="-0_4" arrivalPos="53.56" arrivalPosLat="0.00" arrivalSpeed="16.07" duration="17.90" routeLength="189.02" waitingTime="0.00" waitingCount="0" stopTime="0.00" timeLoss="5.60" rerouteNo="0" devices="tripinfo_f_5.3 routing_f_5.3 emissions_f_5.3" vType="vehicle.mercedes.coupe" speedFactor="1.16" vaporized="">
        <emissions CO_abs="1809.537407" CO2_abs="99277.098841" HC_abs="10.531614" PMx_abs="2.031139" NOx_abs="42.545630" fuel_abs="31664.669200" electricity_abs="0"/>
    </tripinfo>
    <tripinfo id="f_4.3" depart="14.60" departLane="-28_4" departPos="5.14" departPosLat="0.00" departSpeed="0.00" departDelay="8.60" arrival="35.30" arrivalLane="25_3" arrivalPos="64.03" arrivalPosLat="0.00" arrivalSpeed="12.99" duration="20.70" routeLength="202.19" waitingTime="0.00" waitingCount="0" stopTime="0.00" timeLoss="5.15" rerouteNo="0" devices="tripinfo_f_4.3 routing_f_4.3 emissions_f_4.3" vType="vehicle.mercedes.coupe" speedFactor="0.94" vaporized="">
        <emissions CO_abs="1448.044548" CO2_abs="84073.051121" HC_abs="8.482118" PMx_abs="1.512469" NOx_abs="34.612142" fuel_abs="26815.490603" electricity_abs="0"/>
    </tripinfo>
    <tripinfo id="f_4.4" depart="19.50" departLane="-28_4" departPos="5.14" departPosLat="0.00" departSpeed="0.00" departDelay="11.50" arrival="39.80" arrivalLane="25_3" arrivalPos="64.03" arrivalPosLat="0.00" arrivalSpeed="12.35" duration="20.30" routeLength="202.19" waitingTime="0.00" waitingCount="0" stopTime="0.00" timeLoss="3.91" rerouteNo="0" devices="tripinfo_f_4.4 routing_f_4.4 emissions_f_4.4" vType="vehicle.mercedes.coupe" speedFactor="0.89" vaporized="">
        <emissions CO_abs="1281.198385" CO2_abs="79713.043108" HC_abs="7.598565" PMx_abs="1.327485" NOx_abs="32.034625" fuel_abs="25424.916668" electricity_abs="0"/>
    </tripinfo>
    <tripinfo id="f_5.4" depart="22.00" departLane="-28_4" departPos="5.14" departPosLat="0.00" departSpeed="0.00" departDelay="14.00" arrival="42.70" arrivalLane="-0_4" arrivalPos="53.56" arrivalPosLat="0.00" arrivalSpeed="11.45" duration="20.70" routeLength="189.02" waitingTime="0.00" waitingCount="0" stopTime="0.00" timeLoss="3.45" rerouteNo="0" devices="tripinfo_f_5.4 routing_f_5.4 emissions_f_5.4" vType="vehicle.mercedes.coupe" speedFactor="0.83" vaporized="">
        <emissions CO_abs="1288.863761" CO2_abs="74227.889603" HC_abs="7.574345" PMx_abs="1.206091" NOx_abs="29.795425" fuel_abs="23675.489902" electricity_abs="0"/>
    </tripinfo>
    <tripinfo id="f_4.5" depart="24.50" departLane="-28_4" departPos="5.14" departPosLat="0.00" departSpeed="0.00" departDelay="14.50" arrival="42.90" arrivalLane="25_3" arrivalPos="64.03" arrivalPosLat="0.00" arrivalSpeed="15.70" duration="18.40" routeLength="202.19" waitingTime="0.00" waitingCount="0" stopTime="0.00" timeLoss="5.48" rerouteNo="0" devices="tripinfo_f_4.5 routing_f_4.5 emissions_f_4.5" vType="vehicle.mercedes.coupe" speedFactor="1.13" vaporized="">
        <emissions CO_abs="1712.578265" CO2_abs="99978.020556" HC_abs="9.994534" PMx_abs="1.952278" NOx_abs="41.976419" fuel_abs="31888.266825" electricity_abs="0"/>
    </tripinfo>
    <tripinfo id="f_1.4" depart="9.20" departLane="1_3" departPos="4.31" departPosLat="0.00" departSpeed="0.00" departDelay="1.20" arrival="44.80" arrivalLane="39_3" arrivalPos="46.43" arrivalPosLat="-0.00" arrivalSpeed="14.13" duration="35.60" routeLength="194.87" waitingTime="13.30" waitingCount="1" stopTime="0.00" timeLoss="21.78" rerouteNo="0" devices="tripinfo_f_1.4 routing_f_1.4 emissions_f_1.4" vType="vehicle.seat.leon" speedFactor="1.02" vaporized="">
        <emissions CO_abs="4291.568329" CO2_abs="140898.433778" HC_abs="22.806046" PMx_abs="2.991505" NOx_abs="61.193920" fuel_abs="44940.867466" electricity_abs="0"/>
    </tripinfo>
    <tripinfo id="f_1.5" depart="11.50" departLane="1_3" departPos="4.31" departPosLat="0.00" departSpeed="0.00" departDelay="1.50" arrival="45.30" arrivalLane="39_4" arrivalPos="46.43" arrivalPosLat="0.00" arrivalSpeed="12.10" duration="33.80" routeLength="194.87" waitingTime="7.40" waitingCount="1" stopTime="0.00" timeLoss="17.69" rerouteNo="0" devices="tripinfo_f_1.5 routing_f_1.5 emissions_f_1.5" vType="vehicle.seat.leon" speedFactor="0.87" vaporized="">
        <emissions CO_abs="3369.412275" CO2_abs="119102.279498" HC_abs="18.112943" PMx_abs="2.392570" NOx_abs="50.922018" fuel_abs="37988.773357" electricity_abs="0"/>
    </tripinfo>
    <tripinfo id="f_1.7" depart="16.10" departLane="1_3" departPos="4.31" departPosLat="0.00" departSpeed="0.00" departDelay="2.10" arrival="45.70" arrivalLane="39_3" arrivalPos="46.43" arrivalPosLat="-0.00" arrivalSpeed="14.14" duration="29.60" routeLength="194.87" waitingTime="4.30" waitingCount="1" stopTime="0.00" timeLoss="15.80" rerouteNo="0" devices="tripinfo_f_1.7 routing_f_1.7 emissions_f_1.7" vType="vehicle.seat.leon" speedFactor="1.02" vaporized="">
        <emissions CO_abs="3027.458597" CO2_abs="120481.452267" HC_abs="16.606083" PMx_abs="2.512979" NOx_abs="52.187791" fuel_abs="38428.316580" electricity_abs="0"/>
    </tripinfo>
    <tripinfo id="f_1.6" depart="13.80" departLane="1_3" departPos="4.31" departPosLat="0.00" departSpeed="0.00" departDelay="1.80" arrival="46.20" arrivalLane="39_4" arrivalPos="46.43" arrivalPosLat="0.00" arrivalSpeed="14.11" duration="32.40" routeLength="194.87" waitingTime="6.10" waitingCount="1" stopTime="0.00" timeLoss="20.50" rerouteNo="0" devices="tripinfo_f_1.6 routing_f_1.6 emissions_f_1.6" vType="vehicle.seat.leon" speedFactor="1.18" vaporized="">
        <emissions CO_abs="3464.376703" CO2_abs="128551.369332" HC_abs="18.827450" PMx_abs="2.702019" NOx_abs="55.864987" fuel_abs="41002.396799" electricity_abs="0"/>
    </tripinfo>
    <tripinfo id="f_1.8" depart="18.40" departLane="1_3" departPos="4.31" departPosLat="0.00" departSpeed="0.00" departDelay="2.40" arrival="46.60" arrivalLane="39_3" arrivalPos="46.43" arrivalPosLat="0.00" arrivalSpeed="14.30" duration="28.20" routeLength="194.87" waitingTime="3.20" waitingCount="1" stopTime="0.00" timeLoss="14.58" rerouteNo="0" devices="tripinfo_f_1.8 routing_f_1.8 emissions_f_1.8" vType="vehicle.seat.leon" speedFactor="1.03" vaporized="">
        <emissions CO_abs="2752.809231" CO2_abs="113553.921284" HC_abs="15.186791" PMx_abs="2.330121" NOx_abs="48.882531" fuel_abs="36218.718698" electricity_abs="0"/>
    </tripinfo>
    <tripinfo id="f_1.9" depart="20.70" departLane="1_3" departPos="4.31" departPosLat="0.00" departSpeed="0.00" departDelay="2.70" arrival="47.70" arrivalLane="39_3" arrivalPos="46.43" arrivalPosLat="-0.00" arrivalSpeed="15.10" duration="27.00" routeLength="194.87" waitingTime="2.00" waitingCount="1" stopTime="0.00" timeLoss="14.06" rerouteNo="0" devices="tripinfo_f_1.9 routing_f_1.9 emissions_f_1.9" vType="vehicle.seat.leon" speedFactor="1.09" vaporized="">
        <emissions CO_abs="2735.921941" CO2_abs="116618.918964" HC_abs="15.185871" PMx_abs="2.448915" NOx_abs="50.619062" fuel_abs="37196.191612" electricity_abs="0"/>
    </tripinfo>
    <tripinfo id="f_1.10" depart="23.00" departLane="1_3" departPos="4.31" departPosLat="0.00" departSpeed="0.00" departDelay="3.00" arrival="49.60" arrivalLane="39_4" arrivalPos="46.43" arrivalPosLat="0.00" arrivalSpeed="11.85" duration="26.60" routeLength="194.87" waitingTime="0.50" waitingCount="1" stopTime="0.00" timeLoss="10.17" rerouteNo="0" devices="tripinfo_f_1.10 routing_f_1.10 emissions_f_1.10" vType="vehicle.seat.leon" speedFactor="0.85" vaporized="">
        <emissions CO_abs="2212.398995" CO2_abs="99850.418424" HC_abs="12.411569" PMx_abs="1.932533" NOx_abs="42.291458" fuel_abs="31847.904296" electricity_abs="0"/>
    </tripinfo>
    <tripinfo id="f_1.11" depart="25.30" departLane="1_3" departPos="4.31" departPosLat="0.00" departSpeed="0.00" departDelay="3.30" arrival="50.70" arrivalLane="39_4" arrivalPos="46.43" arrivalPosLat="0.00" arrivalSpeed="13.82" duration="25.40" routeLength="194.87" waitingTime="0.00" waitingCount="0" stopTime="0.00" timeLoss="11.26" rerouteNo="0" devices="tripinfo_f_1.11 routing_f_1.11 emissions_f_1.11" vType="vehicle.seat.leon" speedFactor="1.00" vaporized="">
        <emissions CO_abs="2251.683704" CO2_abs="105698.917643" HC_abs="12.729186" PMx_abs="2.177940" NOx_abs="45.717221" fuel_abs="33713.100251" electricity_abs="0"/>
    </tripinfo>
    <tripinfo id="f_1.12" depart="27.60" departLane="1_3" departPos="4.31" departPosLat="0.00" departSpeed="0.00" departDelay="3.60" arrival="51.70" arrivalLane="39_4" arrivalPos="46.43" arrivalPosLat="0.00" arrivalSpeed="15.02" duration="24.10" routeLength="194.87" waitingTime="0.00" waitingCount="0" stopTime="0.00" timeLoss="11.14" rerouteNo="0" devices="tripinfo_f_1.12 routing_f_1.12 emissions_f_1.12" vType="vehicle.seat.leon" speedFactor="1.08" vaporized="">
        <emissions CO_abs="2247.733257" CO2_abs="107982.986937" HC_abs="12.781345" PMx_abs="2.236247" NOx_abs="46.777593" fuel_abs="34441.566713" electricity_abs="0"/>
    </tripinfo>
    <tripinfo id="f_1.13" depart="29.90" departLane="1_3" departPos="4.31" departPosLat="0.00" departSpeed="0.00" departDelay="3.90" arrival="51.90" arrivalLane="39_3" arrivalPos="46.43" arrivalPosLat="0.00" arrivalSpeed="12.24" duration="22.00" routeLength="194.87" waitingTime="0.00" waitingCount="0" stopTime="0.00" timeLoss="6.05" rerouteNo="0" devices="tripinfo_f_1.13 routing_f_1.13 emissions_f_1.13" vType="vehicle.seat.leon" speedFactor="0.88" vaporized="">
        <emissions CO_abs="1789.982012" CO2_abs="95741.870188" HC_abs="10.379846" PMx_abs="1.851359" NOx_abs="40.517711" fuel_abs="30537.248292" electricity_abs="0"/>
    </tripinfo>
    <tripinfo id="f_1.14" depart="32.20" departLane="1_3" departPos="4.31" departPosLat="0.00" departSpeed="0.00" departDelay="4.20" arrival="54.50" arrivalLane="39_4" arrivalPos="46.43" arrivalPosLat="0.00" arrivalSpeed="14.20" duration="22.30" routeLength="194.87" waitingTime="0.20" waitingCount="1" stopTime="0.00" timeLoss="8.59" rerouteNo="0" devices="tripinfo_f_1.14 routing_f_1.14 emissions_f_1.14" vType="vehicle.seat.leon" speedFactor="1.02" vaporized="">
        <emissions CO_abs="2118.494492" CO2_abs="105179.520126" HC_abs="12.051467" PMx_abs="2.114221" NOx_abs="44.949415" fuel_abs="33547.421965" electricity_abs="0"/>
    </tripinfo>
    <tripinfo id="f_1.15" depart="34.50" departLane="1_3" departPos="4.31" departPosLat="0.00" departSpeed="0.00" departDelay="4.50" arrival="56.20" arrivalLane="39_4" arrivalPos="46.43" arrivalPosLat="0.00" arrivalSpeed="13.67" duration="21.70" routeLength="194.87" waitingTime="0.00" waitingCount="0" stopTime="0.00" timeLoss="7.38" rerouteNo="0" devices="tripinfo_f_1.15 routing_f_1.15 emissions_f_1.15" vType="vehicle.seat.leon" speedFactor="0.98" vaporized="">
        <emissions CO_abs="1829.088872" CO2_abs="95613.714828" HC_abs="10.511191" PMx_abs="1.854419" NOx_abs="40.392022" fuel_abs="30496.390860" electricity_abs="0"/>
    </tripinfo>
    <tripinfo id="f_1.16" depart="36.80" departLane="1_3" departPos="4.31" departPosLat="0.00" departSpeed="0.00" departDelay="4.80" arrival="56.50" arrivalLane="39_3" arrivalPos="46.43" arrivalPosLat="-0.00" arrivalSpeed="14.37" duration="19.70" routeLength="194.87" waitingTime="0.00" waitingCount="0" stopTime="0.00" timeLoss="6.13" rerouteNo="0" devices="tripinfo_f_1.16 routing_f_1.16 emissions_f_1.16" vType="vehicle.seat.leon" speedFactor="1.03" vaporized="">
        <emissions CO_abs="1676.647589" CO2_abs="93825.830614" HC_abs="9.724558" PMx_abs="1.804119" NOx_abs="39.401123" fuel_abs="29926.079803" electricity_abs="0"/>
    </tripinfo>
    <tripinfo id="f_2.1" depart="2.30" departLane="-14_3" departPos="4.31" departPosLat="0.00" departSpeed="0.00" departDelay="0.30" arrival="60.90" arrivalLane="-26_4" arrivalPos="61.99" arrivalPosLat="0.00" arrivalSpeed="14.52" duration="58.60" routeLength="206.69" waitingTime="32.90" waitingCount="1" stopTime="0.00" timeLoss="44.34" rerouteNo="0" devices="tripinfo_f_2.1 routing_f_2.1 emissions_f_2.1" vType="vehicle.seat.leon" speedFactor="1.05" vaporized="">
        <emissions CO_abs="7695.392395" CO2_abs="196243.293263" HC_abs="39.551104" PMx_abs="4.347728" NOx_abs="86.284028" fuel_abs="62594.515151" electricity_abs="0"/>
    </tripinfo>
    <tripinfo id="f_2.0" depart="0.00" departLane="-14_3" departPos="4.31" departPosLat="0.00" departSpeed="0.00" departDelay="0.00" arrival="61.30" arrivalLane="-26_3" arrivalPos="61.99" arrivalPosLat="0.00" arrivalSpeed="13.02" duration="61.30" routeLength="206.69" waitingTime="38.10" waitingCount="1" stopTime="0.00" timeLoss="45.39" rerouteNo="0" devices="tripinfo_f_2.0 routing_f_2.0 emissions_f_2.0" vType="vehicle.seat.leon" speedFactor="0.94" vaporized="">
        <emissions CO_abs="8079.207546" CO2_abs="195674.627219" HC_abs="41.263480" PMx_abs="4.260747" NOx_abs="85.465943" fuel_abs="62413.485066" electricity_abs="0"/>
    </tripinfo>
    <tripinfo id="f_2.2" depart="4.60" departLane="-14_3" departPos="4.31" departPosLat="0.00" departSpeed="0.00" departDelay="0.60" arrival="61.80" arrivalLane="-26_4" arrivalPos="61.99" arrivalPosLat="0.00" arrivalSpeed="14.25" duration="57.20" routeLength="206.69" waitingTime="31.80" waitingCount="1" stopTime="0.00" timeLoss="42.69" rerouteNo="0" devices="tripinfo_f_2.2 routing_f_2.2 emissions_f_2.2" vType="vehicle.seat.leon" speedFactor="1.03" vaporized="">
        <emissions CO_abs="7432.902057" CO2_abs="189842.748320" HC_abs="38.230919" PMx_abs="4.193463" NOx_abs="83.396082" fuel_abs="60552.984422" electricity_abs="0"/>
    </tripinfo>
    <tripinfo id="f_2.4" depart="9.20" departLane="-14_3" departPos="4.31" departPosLat="0.00" departSpeed="0.00" departDelay="1.20" arrival="62.20" arrivalLane="-26_3" arrivalPos="61.99" arrivalPosLat="-0.00" arrivalSpeed="14.02" duration="53.00" routeLength="206.69" waitingTime="26.40" waitingCount="1" stopTime="0.00" timeLoss="38.25" rerouteNo="0" devices="tripinfo_f_2.4 routing_f_2.4 emissions_f_2.4" vType="vehicle.seat.leon" speedFactor="1.01" vaporized="">
        <emissions CO_abs="6606.872859" CO2_abs="176706.877995" HC_abs="34.222631" PMx_abs="3.864809" NOx_abs="77.535224" fuel_abs="56362.960719" electricity_abs="0"/>
    </tripinfo>
    <tripinfo id="f_2.5" depart="11.50" departLane="-14_3" departPos="4.31" departPosLat="0.00" departSpeed="0.00" departDelay="1.50" arrival="63.30" arrivalLane="-26_3" arrivalPos="61.99" arrivalPosLat="-0.00" arrivalSpeed="12.72" duration="51.80" routeLength="206.69" waitingTime="25.40" waitingCount="1" stopTime="0.00" timeLoss="35.55" rerouteNo="0" devices="tripinfo_f_2.5 routing_f_2.5 emissions_f_2.5" vType="vehicle.seat.leon" speedFactor="0.92" vaporized="">
        <emissions CO_abs="6154.022794" CO2_abs="161970.841482" HC_abs="31.773422" PMx_abs="3.461051" NOx_abs="70.443659" fuel_abs="51662.869216" electricity_abs="0"/>
    </tripinfo>
    <tripinfo id="f_2.3" depart="6.90" departLane="-14_3" departPos="4.31" departPosLat="0.00" departSpeed="0.00" departDelay="0.90" arrival="63.50" arrivalLane="-26_4" arrivalPos="61.99" arrivalPosLat="0.00" arrivalSpeed="12.20" duration="56.60" routeLength="206.69" waitingTime="30.60" waitingCount="1" stopTime="0.00" timeLoss="39.65" rerouteNo="0" devices="tripinfo_f_2.3 routing_f_2.3 emissions_f_2.3" vType="vehicle.seat.leon" speedFactor="0.88" vaporized="">
        <emissions CO_abs="6903.174842" CO2_abs="171647.390575" HC_abs="35.398395" PMx_abs="3.687783" NOx_abs="74.735743" fuel_abs="54749.564886" electricity_abs="0"/>
    </tripinfo>
    <tripinfo id="f_2.6" depart="13.80" departLane="-14_3" departPos="4.31" departPosLat="0.00" departSpeed="0.00" departDelay="1.80" arrival="64.30" arrivalLane="-26_3" arrivalPos="61.99" arrivalPosLat="-0.00" arrivalSpeed="15.47" duration="50.50" routeLength="206.69" waitingTime="24.30" waitingCount="1" stopTime="0.00" timeLoss="37.57" rerouteNo="0" devices="tripinfo_f_2.6 routing_f_2.6 emissions_f_2.6" vType="vehicle.seat.leon" speedFactor="1.15" vaporized="">
        <emissions CO_abs="6319.596840" CO2_abs="171104.757499" HC_abs="32.760844" PMx_abs="3.803229" NOx_abs="75.477120" fuel_abs="54575.965437" electricity_abs="0"/>
    </tripinfo>
    <tripinfo id="f_2.8" depart="18.40" departLane="-14_3" departPos="4.31" departPosLat="0.00" departSpeed="0.00" departDelay="2.40" arrival="64.60" arrivalLane="-26_4" arrivalPos="61.99" arrivalPosLat="0.00" arrivalSpeed="13.28" duration="46.20" routeLength="206.69" waitingTime="15.80" waitingCount="2" stopTime="0.00" timeLoss="30.57" rerouteNo="0" devices="tripinfo_f_2.8 routing_f_2.8 emissions_f_2.8" vType="vehicle.seat.leon" speedFactor="0.96" vaporized="">
        <emissions CO_abs="5217.594076" CO2_abs="152217.007254" HC_abs="27.256517" PMx_abs="3.265343" NOx_abs="66.381524" fuel_abs="48551.359897" electricity_abs="0"/>
    </tripinfo>
    <tripinfo id="f_2.7" depart="16.10" departLane="-14_3" departPos="4.31" departPosLat="0.00" departSpeed="0.00" departDelay="2.10" arrival="65.60" arrivalLane="-26_3" arrivalPos="61.99" arrivalPosLat="-0.00" arrivalSpeed="13.49" duration="49.50" routeLength="206.69" waitingTime="23.10" waitingCount="1" stopTime="0.00" timeLoss="34.14" rerouteNo="0" devices="tripinfo_f_2.7 routing_f_2.7 emissions_f_2.7" vType="vehicle.seat.leon" speedFactor="0.97" vaporized="">
        <emissions CO_abs="6007.370555" CO2_abs="164968.022082" HC_abs="31.150643" PMx_abs="3.561076" NOx_abs="71.994854" fuel_abs="52618.646395" electricity_abs="0"/>
    </tripinfo>
    <tripinfo id="f_2.9" depart="20.70" departLane="-14_3" departPos="4.31" departPosLat="0.00" departSpeed="0.00" departDelay="2.70" arrival="65.60" arrivalLane="-26_4" arrivalPos="61.99" arrivalPosLat="0.00" arrivalSpeed="13.83" duration="44.90" routeLength="206.69" waitingTime="13.70" waitingCount="2" stopTime="0.00" timeLoss="29.93" rerouteNo="0" devices="tripinfo_f_2.9 routing_f_2.9 emissions_f_2.9" vType="vehicle.seat.leon" speedFactor="1.00" vaporized="">
        <emissions CO_abs="4940.299129" CO2_abs="147676.660095" HC_abs="25.914926" PMx_abs="3.196935" NOx_abs="64.646566" fuel_abs="47103.048960" electricity_abs="0"/>
    </tripinfo>
    <tripinfo id="f_2.10" depart="23.00" departLane="-14_3" departPos="4.31" departPosLat="0.00" departSpeed="0.00" departDelay="3.00" arrival="66.60" arrivalLane="-26_4" arrivalPos="61.99" arrivalPosLat="0.00" arrivalSpeed="16.23" duration="43.60" routeLength="206.69" waitingTime="12.60" waitingCount="1" stopTime="0.00" timeLoss="30.84" rerouteNo="0" devices="tripinfo_f_2.10 routing_f_2.10 emissions_f_2.10" vType="vehicle.seat.leon" speedFactor="1.17" vaporized="">
        <emissions CO_abs="4859.126374" CO2_abs="151916.344475" HC_abs="25.698969" PMx_abs="3.328240" NOx_abs="66.823919" fuel_abs="48455.154605" electricity_abs="0"/>
    </tripinfo>
    <tripinfo id="f_2.11" depart="25.30" departLane="-14_3" departPos="4.31" departPosLat="0.00" departSpeed="0.00" departDelay="3.30" arrival="67.40" arrivalLane="-26_3" arrivalPos="61.99" arrivalPosLat="-0.00" arrivalSpeed="12.47" duration="42.10" routeLength="206.69" waitingTime="12.50" waitingCount="1" stopTime="0.00" timeLoss="25.51" rerouteNo="0" devices="tripinfo_f_2.11 routing_f_2.11 emissions_f_2.11" vType="vehicle.seat.leon" speedFactor="0.90" vaporized="">
        <emissions CO_abs="4444.204967" CO2_abs="139131.388246" HC_abs="23.459002" PMx_abs="2.883945" NOx_abs="60.100510" fuel_abs="44377.459125" electricity_abs="0"/>
    </tripinfo>
    <tripinfo id="f_2.12" depart="27.60" departLane="-14_3" departPos="4.31" departPosLat="0.00" departSpeed="0.00" departDelay="3.60" arrival="68.40" arrivalLane="-26_3" arrivalPos="61.99" arrivalPosLat="-0.00" arrivalSpeed="15.30" duration="40.80" routeLength="206.69" waitingTime="10.70" waitingCount="2" stopTime="0.00" timeLoss="27.49" rerouteNo="0" devices="tripinfo_f_2.12 routing_f_2.12 emissions_f_2.12" vType="vehicle.seat.leon" speedFactor="1.12" vaporized="">
        <emissions CO_abs="4563.827586" CO2_abs="147033.066893" HC_abs="24.205599" PMx_abs="3.162895" NOx_abs="64.330222" fuel_abs="46897.560244" electricity_abs="0"/>
    </tripinfo>
    <tripinfo id="f_2.13" depart="29.90" departLane="-14_3" departPos="4.31" departPosLat="0.00" departSpeed="0.00" departDelay="3.90" arrival="68.80" arrivalLane="-26_4" arrivalPos="61.99" arrivalPosLat="0.00" arrivalSpeed="12.57" duration="38.90" routeLength="206.69" waitingTime="9.70" waitingCount="1" stopTime="0.00" timeLoss="22.40" rerouteNo="0" devices="tripinfo_f_2.13 routing_f_2.13 emissions_f_2.13" vType="vehicle.seat.leon" speedFactor="0.91" vaporized="">
        <emissions CO_abs="3944.177471" CO2_abs="130306.342578" HC_abs="20.966958" PMx_abs="2.653600" NOx_abs="55.969206" fuel_abs="41562.530149" electricity_abs="0"/>
    </tripinfo>
    <tripinfo id="f_2.15" depart="34.50" departLane="-14_3" departPos="4.31" departPosLat="0.00" departSpeed="0.00" departDelay="4.50" arrival="69.60" arrivalLane="-26_3" arrivalPos="61.99" arrivalPosLat="-0.00" arrivalSpeed="14.34" duration="35.10" routeLength="206.69" waitingTime="7.50" waitingCount="1" stopTime="0.00" timeLoss="20.61" rerouteNo="0" devices="tripinfo_f_2.15 routing_f_2.15 emissions_f_2.15" vType="vehicle.seat.leon" speedFactor="1.03" vaporized="">
        <emissions CO_abs="3679.384335" CO2_abs="130043.576931" HC_abs="19.761499" PMx_abs="2.721373" NOx_abs="56.353205" fuel_abs="41478.463479" electricity_abs="0"/>
    </tripinfo>
    <tripinfo id="f_2.14" depart="32.20" departLane="-14_3" departPos="4.31" departPosLat="0.00" departSpeed="0.00" departDelay="4.20" arrival="69.80" arrivalLane="-26_4" arrivalPos="61.99" arrivalPosLat="0.00" arrivalSpeed="13.49" duration="37.60" routeLength="206.69" waitingTime="8.90" waitingCount="1" stopTime="0.00" timeLoss="22.31" rerouteNo="0" devices="tripinfo_f_2.14 routing_f_2.14 emissions_f_2.14" vType="vehicle.seat.leon" speedFactor="0.97" vaporized="">
        <emissions CO_abs="3787.911016" CO2_abs="125588.427646" HC_abs="20.127400" PMx_abs="2.590159" NOx_abs="54.155558" fuel_abs="40057.651459" electricity_abs="0"/>
    </tripinfo>