<?xml version="1.0" encoding="UTF-8"?>

<!-- generated on 2023-09-13 21:57:52 by Eclipse SUMO sumo Version 1.17.0
<configuration xmlns:xsi="http://www.w3.org/2001/XMLSchema-instance" xsi:noNamespaceSchemaLocation="http://sumo.dlr.de/xsd/sumoConfiguration.xsd">

    <input>
        <net-file value="configs/Town05/Town05.net.xml"/>
        <route-files value="configs/Town05/Town05.rou.xml"/>
    </input>

    <output>
        <queue-output value="queue.xml"/>
        <tripinfo-output value="tripinfo.xml"/>
        <collision-output value="collision.xml"/>
    </output>

    <time>
        <step-length value="0.1"/>
    </time>

    <processing>
        <lateral-resolution value="0.25"/>
        <collision.check-junctions value="true"/>
    </processing>

    <emissions>
        <device.emissions.probability value="1.0"/>
    </emissions>

    <traci_server>
        <remote-port value="3001"/>
        <num-clients value="1"/>
    </traci_server>

    <gui_only>
        <gui-settings-file value="configs/Town05/viewsettings.xml"/>
    </gui_only>

</configuration>
-->

<tripinfos xmlns:xsi="http://www.w3.org/2001/XMLSchema-instance" xsi:noNamespaceSchemaLocation="http://sumo.dlr.de/xsd/tripinfo_file.xsd">
    <tripinfo id="f_1.0" depart="0.00" departLane="1_3" departPos="4.31" departPosLat="0.00" departSpeed="0.00" departDelay="0.00" arrival="21.20" arrivalLane="39_3" arrivalPos="46.43" arrivalPosLat="0.00" arrivalSpeed="14.52" duration="21.20" routeLength="194.87" waitingTime="0.00" waitingCount="0" stopTime="0.00" timeLoss="7.90" rerouteNo="0" devices="tripinfo_f_1.0 routing_f_1.0 emissions_f_1.0" vType="vehicle.seat.leon" speedFactor="1.06" vaporized="">
        <emissions CO_abs="1875.674571" CO2_abs="98901.873947" HC_abs="10.873838" PMx_abs="1.895997" NOx_abs="41.687747" fuel_abs="31545.187072" electricity_abs="0"/>
    </tripinfo>
    <tripinfo id="f_1.1" depart="2.60" departLane="1_3" departPos="4.31" departPosLat="0.00" departSpeed="0.00" departDelay="0.60" arrival="24.80" arrivalLane="39_4" arrivalPos="46.43" arrivalPosLat="0.00" arrivalSpeed="11.36" duration="22.20" routeLength="194.87" waitingTime="0.00" waitingCount="0" stopTime="0.00" timeLoss="5.27" rerouteNo="0" devices="tripinfo_f_1.1 routing_f_1.1 emissions_f_1.1" vType="vehicle.seat.leon" speedFactor="0.83" vaporized="">
        <emissions CO_abs="1600.828251" CO2_abs="80444.716630" HC_abs="9.173799" PMx_abs="1.489144" NOx_abs="33.670860" fuel_abs="25658.296582" electricity_abs="0"/>
    </tripinfo>
    <tripinfo id="f_1.2" depart="5.20" departLane="1_3" departPos="4.31" departPosLat="0.00" departSpeed="0.00" departDelay="1.20" arrival="26.50" arrivalLane="39_3" arrivalPos="46.43" arrivalPosLat="-0.00" arrivalSpeed="14.96" duration="21.30" routeLength="194.87" waitingTime="0.00" waitingCount="0" stopTime="0.00" timeLoss="8.42" rerouteNo="0" devices="tripinfo_f_1.2 routing_f_1.2 emissions_f_1.2" vType="vehicle.seat.leon" speedFactor="1.09" vaporized="">
        <emissions CO_abs="1957.402545" CO2_abs="102010.550053" HC_abs="11.322570" PMx_abs="1.979885" NOx_abs="43.148276" fuel_abs="32536.699633" electricity_abs="0"/>
    </tripinfo>
    <tripinfo id="f_5.0" depart="2.80" departLane="-28_4" departPos="5.14" departPosLat="0.00" departSpeed="0.00" departDelay="2.80" arrival="32.40" arrivalLane="-0_4" arrivalPos="53.56" arrivalPosLat="0.00" arrivalSpeed="14.19" duration="29.60" routeLength="189.02" waitingTime="6.20" waitingCount="1" stopTime="0.00" timeLoss="15.77" rerouteNo="0" devices="tripinfo_f_5.0 routing_f_5.0 emissions_f_5.0" vType="vehicle.mercedes.coupe" speedFactor="1.03" vaporized="">
        <emissions CO_abs="3161.004051" CO2_abs="116309.183921" HC_abs="17.128364" PMx_abs="2.357403" NOx_abs="49.888528" fuel_abs="37097.783080" electricity_abs="0"/>
    </tripinfo>
    <tripinfo id="f_4.0" depart="0.00" departLane="-28_4" departPos="5.14" departPosLat="0.00" departSpeed="0.00" departDelay="0.00" arrival="33.30" arrivalLane="25_3" arrivalPos="64.03" arrivalPosLat="0.00" arrivalSpeed="15.03" duration="33.30" routeLength="202.19" waitingTime="9.00" waitingCount="1" stopTime="0.00" timeLoss="19.80" rerouteNo="0" devices="tripinfo_f_4.0 routing_f_4.0 emissions_f_4.0" vType="vehicle.mercedes.coupe" speedFactor="1.08" vaporized="">
        <emissions CO_abs="3772.058135" CO2_abs="132608.964914" HC_abs="20.296851" PMx_abs="2.745804" NOx_abs="57.201394" fuel_abs="42296.777556" electricity_abs="0"/>
    </tripinfo>
    <tripinfo id="f_5.1" depart="8.60" departLane="-28_4" departPos="5.14" departPosLat="0.00" departSpeed="0.00" departDelay="6.60" arrival="35.10" arrivalLane="-0_4" arrivalPos="53.56" arrivalPosLat="0.00" arrivalSpeed="11.83" duration="26.50" routeLength="189.02" waitingTime="0.00" waitingCount="0" stopTime="0.00" timeLoss="9.82" rerouteNo="0" devices="tripinfo_f_5.1 routing_f_5.1 emissions_f_5.1" vType="vehicle.mercedes.coupe" speedFactor="0.86" vaporized="">
        <emissions CO_abs="1921.020031" CO2_abs="83138.390035" HC_abs="10.689595" PMx_abs="1.562929" NOx_abs="35.032366" fuel_abs="26517.594622" electricity_abs="0"/>
    </tripinfo>
    <tripinfo id="f_4.1" depart="5.70" departLane="-28_4" departPos="5.14" departPosLat="0.00" departSpeed="0.00" departDelay="3.70" arrival="35.80" arrivalLane="25_3" arrivalPos="64.03" arrivalPosLat="0.00" arrivalSpeed="12.82" duration="30.10" routeLength="202.19" waitingTime="0.00" waitingCount="0" stopTime="0.00" timeLoss="14.56" rerouteNo="0" devices="tripinfo_f_4.1 routing_f_4.1 emissions_f_4.1" vType="vehicle.mercedes.coupe" speedFactor="0.94" vaporized="">
        <emissions CO_abs="2196.418412" CO2_abs="94119.419556" HC_abs="12.202536" PMx_abs="1.818319" NOx_abs="39.892006" fuel_abs="30020.037019" electricity_abs="0"/>
    </tripinfo>
    <tripinfo id="f_5.2" depart="14.40" departLane="-28_4" departPos="5.14" departPosLat="0.00" departSpeed="0.00" departDelay="10.40" arrival="37.40" arrivalLane="-0_4" arrivalPos="53.56" arrivalPosLat="0.00" arrivalSpeed="13.71" duration="23.00" routeLength="189.02" waitingTime="0.00" waitingCount="0" stopTime="0.00" timeLoss="8.58" rerouteNo="0" devices="tripinfo_f_5.2 routing_f_5.2 emissions_f_5.2" vType="vehicle.mercedes.coupe" speedFactor="0.99" vaporized="">
        <emissions CO_abs="1727.090742" CO2_abs="83629.949092" HC_abs="9.824269" PMx_abs="1.560600" NOx_abs="35.103914" fuel_abs="26674.267922" electricity_abs="0"/>
    </tripinfo>
    <tripinfo id="f_4.2" depart="11.60" departLane="-28_4" departPos="5.14" departPosLat="0.00" departSpeed="0.00" departDelay="7.60" arrival="38.00" arrivalLane="25_3" arrivalPos="64.03" arrivalPosLat="0.00" arrivalSpeed="15.25" duration="26.40" routeLength="202.19" waitingTime="0.00" waitingCount="0" stopTime="0.00" timeLoss="13.39" rerouteNo="0" devices="tripinfo_f_4.2 routing_f_4.2 emissions_f_4.2" vType="vehicle.mercedes.coupe" speedFactor="1.12" vaporized="">
        <emissions CO_abs="2028.156181" CO2_abs="95424.891572" HC_abs="11.480331" PMx_abs="1.812259" NOx_abs="40.238695" fuel_abs="30436.337911" electricity_abs="0"/>
    </tripinfo>
    <tripinfo id="f_5.3" depart="20.20" departLane="-28_4" departPos="5.14" departPosLat="0.00" departSpeed="0.00" departDelay="14.20" arrival="40.30" arrivalLane="-0_4" arrivalPos="53.56" arrivalPosLat="0.00" arrivalSpeed="15.94" duration="20.10" routeLength="189.02" waitingTime="0.00" waitingCount="0" stopTime="0.00" timeLoss="7.76" rerouteNo="0" devices="tripinfo_f_5.3 routing_f_5.3 emissions_f_5.3" vType="vehicle.mercedes.coupe" speedFactor="1.16" vaporized="">
        <emissions CO_abs="1703.582415" CO2_abs="91925.198485" HC_abs="9.924112" PMx_abs="1.739323" NOx_abs="38.529226" fuel_abs="29319.952096" electricity_abs="0"/>
    </tripinfo>
    <tripinfo id="f_4.3" depart="17.30" departLane="-28_4" departPos="5.14" departPosLat="0.00" departSpeed="0.00" departDelay="11.30" arrival="40.70" arrivalLane="25_3" arrivalPos="64.03" arrivalPosLat="0.00" arrivalSpeed="12.90" duration="23.40" routeLength="202.19" waitingTime="0.00" waitingCount="0" stopTime="0.00" timeLoss="7.85" rerouteNo="0" devices="tripinfo_f_4.3 routing_f_4.3 emissions_f_4.3" vType="vehicle.mercedes.coupe" speedFactor="0.94" vaporized="">
        <emissions CO_abs="1682.725182" CO2_abs="83331.123821" HC_abs="9.617648" PMx_abs="1.574557" NOx_abs="35.085016" fuel_abs="26578.910847" electricity_abs="0"/>
    </tripinfo>
    <tripinfo id="f_4.4" depart="23.10" departLane="-28_4" departPos="5.14" departPosLat="0.00" departSpeed="0.00" departDelay="15.10" arrival="44.90" arrivalLane="25_3" arrivalPos="64.03" arrivalPosLat="0.00" arrivalSpeed="12.30" duration="21.80" routeLength="202.19" waitingTime="0.00" waitingCount="0" stopTime="0.00" timeLoss="5.35" rerouteNo="0" devices="tripinfo_f_4.4 routing_f_4.4 emissions_f_4.4" vType="vehicle.mercedes.coupe" speedFactor="0.89" vaporized="">
        <emissions CO_abs="1576.195777" CO2_abs="81958.603442" HC_abs="9.091243" PMx_abs="1.515932" NOx_abs="34.194988" fuel_abs="26141.132736" electricity_abs="0"/>
    </tripinfo>
    <tripinfo id="f_1.4" depart="10.70" departLane="1_3" departPos="4.31" departPosLat="0.00" departSpeed="0.00" departDelay="2.70" arrival="47.30" arrivalLane="39_4" arrivalPos="46.43" arrivalPosLat="0.00" arrivalSpeed="14.06" duration="36.60" routeLength="194.87" waitingTime="11.30" waitingCount="1" stopTime="0.00" timeLoss="22.80" rerouteNo="0" devices="tripinfo_f_1.4 routing_f_1.4 emissions_f_1.4" vType="vehicle.seat.leon" speedFactor="1.02" vaporized="">
        <emissions CO_abs="4162.856471" CO2_abs="135013.752789" HC_abs="22.135723" PMx_abs="2.783651" NOx_abs="58.297370" fuel_abs="43064.017536" electricity_abs="0"/>
    </tripinfo>
    <tripinfo id="f_1.3" depart="8.00" departLane="1_3" departPos="4.31" departPosLat="0.00" departSpeed="0.00" departDelay="2.00" arrival="47.70" arrivalLane="39_3" arrivalPos="46.43" arrivalPosLat="0.00" arrivalSpeed="12.81" duration="39.70" routeLength="194.87" waitingTime="13.20" waitingCount="1" stopTime="0.00" timeLoss="24.51" rerouteNo="0" devices="tripinfo_f_1.3 routing_f_1.3 emissions_f_1.3" vType="vehicle.seat.leon" speedFactor="0.93" vaporized="">
        <emissions CO_abs="4414.453533" CO2_abs="132718.183108" HC_abs="23.217275" PMx_abs="2.745112" NOx_abs="57.414911" fuel_abs="42332.012655" electricity_abs="0"/>
    </tripinfo>
    <tripinfo id="f_1.7" depart="18.80" departLane="1_3" departPos="4.31" departPosLat="0.00" departSpeed="0.00" departDelay="4.80" arrival="49.30" arrivalLane="39_4" arrivalPos="46.43" arrivalPosLat="0.00" arrivalSpeed="13.93" duration="30.50" routeLength="194.87" waitingTime="0.00" waitingCount="0" stopTime="0.00" timeLoss="16.69" rerouteNo="0" devices="tripinfo_f_1.7 routing_f_1.7 emissions_f_1.7" vType="vehicle.seat.leon" speedFactor="1.02" vaporized="">
        <emissions CO_abs="2416.735310" CO2_abs="101787.418219" HC_abs="13.393932" PMx_abs="1.969701" NOx_abs="43.229690" fuel_abs="32465.816583" electricity_abs="0"/>
    </tripinfo>
    <tripinfo id="f_1.5" depart="13.40" departLane="1_3" departPos="4.31" departPosLat="0.00" departSpeed="0.00" departDelay="3.40" arrival="49.90" arrivalLane="39_3" arrivalPos="46.43" arrivalPosLat="-0.00" arrivalSpeed="12.02" duration="36.50" routeLength="194.87" waitingTime="1.80" waitingCount="1" stopTime="0.00" timeLoss="20.35" rerouteNo="0" devices="tripinfo_f_1.5 routing_f_1.5 emissions_f_1.5" vType="vehicle.seat.leon" speedFactor="0.87" vaporized="">
        <emissions CO_abs="3241.791515" CO2_abs="109178.114389" HC_abs="17.316922" PMx_abs="2.173700" NOx_abs="46.749144" fuel_abs="34823.476839" electricity_abs="0"/>
    </tripinfo>
    <tripinfo id="f_1.10" depart="26.80" departLane="1_3" departPos="4.31" departPosLat="0.00" departSpeed="0.00" departDelay="6.80" arrival="51.70" arrivalLane="39_4" arrivalPos="46.43" arrivalPosLat="0.00" arrivalSpeed="11.74" duration="24.90" routeLength="194.87" waitingTime="0.00" waitingCount="0" stopTime="0.00" timeLoss="8.47" rerouteNo="0" devices="tripinfo_f_1.10 routing_f_1.10 emissions_f_1.10" vType="vehicle.seat.leon" speedFactor="0.85" vaporized="">
        <emissions CO_abs="1770.714673" CO2_abs="82255.773399" HC_abs="9.980043" PMx_abs="1.515721" NOx_abs="34.450499" fuel_abs="26236.030716" electricity_abs="0"/>
    </tripinfo>
    <tripinfo id="f_1.6" depart="16.10" departLane="1_3" departPos="4.31" departPosLat="0.00" departSpeed="0.00" departDelay="4.10" arrival="52.00" arrivalLane="39_3" arrivalPos="46.43" arrivalPosLat="-0.00" arrivalSpeed="13.92" duration="35.90" routeLength="194.87" waitingTime="0.00" waitingCount="0" stopTime="0.00" timeLoss="23.94" rerouteNo="0" devices="tripinfo_f_1.6 routing_f_1.6 emissions_f_1.6" vType="vehicle.seat.leon" speedFactor="1.18" vaporized="">
        <emissions CO_abs="2841.888411" CO2_abs="103510.239701" HC_abs="15.368374" PMx_abs="2.038651" NOx_abs="44.246612" fuel_abs="33015.522970" electricity_abs="0"/>
    </tripinfo>
    <tripinfo id="f_1.8" depart="21.40" departLane="1_3" departPos="4.31" departPosLat="0.00" departSpeed="0.00" departDelay="5.40" arrival="53.90" arrivalLane="39_4" arrivalPos="46.43" arrivalPosLat="0.00" arrivalSpeed="14.10" duration="32.50" routeLength="194.87" waitingTime="0.00" waitingCount="0" stopTime="0.00" timeLoss="18.82" rerouteNo="0" devices="tripinfo_f_1.8 routing_f_1.8 emissions_f_1.8" vType="vehicle.seat.leon" speedFactor="1.03" vaporized="">
        <emissions CO_abs="2543.181059" CO2_abs="100527.475542" HC_abs="13.941286" PMx_abs="1.961880" NOx_abs="42.863014" fuel_abs="32064.025649" electricity_abs="0"/>
    </tripinfo>
    <tripinfo id="f_1.9" depart="24.10" departLane="1_3" departPos="4.31" departPosLat="0.00" departSpeed="0.00" departDelay="6.10" arrival="55.50" arrivalLane="39_3" arrivalPos="46.43" arrivalPosLat="-0.00" arrivalSpeed="14.95" duration="31.40" routeLength="194.87" waitingTime="0.00" waitingCount="0" stopTime="0.00" timeLoss="18.47" rerouteNo="0" devices="tripinfo_f_1.9 routing_f_1.9 emissions_f_1.9" vType="vehicle.seat.leon" speedFactor="1.09" vaporized="">
        <emissions CO_abs="2445.194367" CO2_abs="98470.410931" HC_abs="13.441812" PMx_abs="1.900761" NOx_abs="41.797402" fuel_abs="31407.906344" electricity_abs="0"/>
    </tripinfo>
    <tripinfo id="f_1.11" depart="29.60" departLane="1_3" departPos="4.31" departPosLat="0.00" departSpeed="0.00" departDelay="7.60" arrival="56.40" arrivalLane="39_4" arrivalPos="46.43" arrivalPosLat="0.00" arrivalSpeed="13.75" duration="26.80" routeLength="194.87" waitingTime="0.00" waitingCount="0" stopTime="0.00" timeLoss="12.68" rerouteNo="0" devices="tripinfo_f_1.11 routing_f_1.11 emissions_f_1.11" vType="vehicle.seat.leon" speedFactor="1.00" vaporized="">
        <emissions CO_abs="2106.537498" CO2_abs="95372.961822" HC_abs="11.822442" PMx_abs="1.824639" NOx_abs="40.366840" fuel_abs="30419.802253" electricity_abs="0"/>
    </tripinfo>
    <tripinfo id="f_1.12" depart="32.30" departLane="1_3" departPos="4.31" departPosLat="0.00" departSpeed="0.00" departDelay="8.30" arrival="58.20" arrivalLane="39_3" arrivalPos="46.43" arrivalPosLat="0.00" arrivalSpeed="15.02" duration="25.90" routeLength="194.87" waitingTime="0.00" waitingCount="0" stopTime="0.00" timeLoss="12.93" rerouteNo="0" devices="tripinfo_f_1.12 routing_f_1.12 emissions_f_1.12" vType="vehicle.seat.leon" speedFactor="1.08" vaporized="">
        <emissions CO_abs="2026.943523" CO2_abs="93808.012353" HC_abs="11.425643" PMx_abs="1.764004" NOx_abs="39.467495" fuel_abs="29920.661550" electricity_abs="0"/>
    </tripinfo>
    <tripinfo id="f_2.0" depart="0.00" departLane="-14_3" departPos="4.31" departPosLat="0.00" departSpeed="0.00" departDelay="0.00" arrival="63.50" arrivalLane="-26_3" arrivalPos="61.99" arrivalPosLat="0.00" arrivalSpeed="12.95" duration="63.50" routeLength="206.69" waitingTime="38.10" waitingCount="1" stopTime="0.00" timeLoss="47.61" rerouteNo="0" devices="tripinfo_f_2.0 routing_f_2.0 emissions_f_2.0" vType="vehicle.seat.leon" speedFactor="0.94" vaporized="">
        <emissions CO_abs="8388.876049" CO2_abs="198004.274097" HC_abs="42.844006" PMx_abs="4.393226" NOx_abs="87.283393" fuel_abs="63156.601606" electricity_abs="0"/>
    </tripinfo>
    <tripinfo id="f_2.1" depart="2.60" departLane="-14_3" departPos="4.31" departPosLat="0.00" departSpeed="0.00" departDelay="0.60" arrival="63.50" arrivalLane="-26_4" arrivalPos="61.99" arrivalPosLat="0.00" arrivalSpeed="14.32" duration="60.90" routeLength="206.69" waitingTime="35.80" waitingCount="1" stopTime="0.00" timeLoss="46.65" rerouteNo="0" devices="tripinfo_f_2.1 routing_f_2.1 emissions_f_2.1" vType="vehicle.seat.leon" speedFactor="1.05" vaporized="">
        <emissions CO_abs="8144.583158" CO2_abs="200756.689080" HC_abs="41.808815" PMx_abs="4.437784" NOx_abs="88.375235" fuel_abs="64034.318915" electricity_abs="0"/>
    </tripinfo>
    <tripinfo id="f_2.2" depart="5.20" departLane="-14_3" departPos="4.31" departPosLat="0.00" departSpeed="0.00" departDelay="1.20" arrival="65.60" arrivalLane="-26_3" arrivalPos="61.99" arrivalPosLat="0.00" arrivalSpeed="14.12" duration="60.40" routeLength="206.69" waitingTime="25.90" waitingCount="1" stopTime="0.00" timeLoss="45.86" rerouteNo="0" devices="tripinfo_f_2.2 routing_f_2.2 emissions_f_2.2" vType="vehicle.seat.leon" speedFactor="1.03" vaporized="">
        <emissions CO_abs="7233.741538" CO2_abs="179706.259164" HC_abs="37.163040" PMx_abs="3.936407" NOx_abs="78.994883" fuel_abs="57319.969256" electricity_abs="0"/>
    </tripinfo>
    <tripinfo id="f_2.3" depart="7.90" departLane="-14_3" departPos="4.31" departPosLat="0.00" departSpeed="0.00" departDelay="1.90" arrival="65.90" arrivalLane="-26_4" arrivalPos="61.99" arrivalPosLat="0.00" arrivalSpeed="12.08" duration="58.00" routeLength="206.69" waitingTime="23.20" waitingCount="1" stopTime="0.00" timeLoss="41.04" rerouteNo="0" devices="tripinfo_f_2.3 routing_f_2.3 emissions_f_2.3" vType="vehicle.seat.leon" speedFactor="0.88" vaporized="">
        <emissions CO_abs="6675.898907" CO2_abs="165055.403539" HC_abs="34.259443" PMx_abs="3.579316" NOx_abs="72.351088" fuel_abs="52646.920505" electricity_abs="0"/>
    </tripinfo>
    <tripinfo id="f_2.4" depart="10.60" departLane="-14_3" departPos="4.31" departPosLat="0.00" departSpeed="0.00" departDelay="2.60" arrival="67.70" arrivalLane="-26_3" arrivalPos="61.99" arrivalPosLat="-0.00" arrivalSpeed="13.96" duration="57.10" routeLength="206.69" waitingTime="20.50" waitingCount="1" stopTime="0.00" timeLoss="42.30" rerouteNo="0" devices="tripinfo_f_2.4 routing_f_2.4 emissions_f_2.4" vType="vehicle.seat.leon" speedFactor="1.01" vaporized="">
        <emissions CO_abs="6547.280561" CO2_abs="166059.737251" HC_abs="33.698450" PMx_abs="3.567585" NOx_abs="72.563583" fuel_abs="52967.197632" electricity_abs="0"/>
    </tripinfo>
    <tripinfo id="f_2.5" depart="13.40" departLane="-14_3" departPos="4.31" departPosLat="0.00" departSpeed="0.00" departDelay="3.40" arrival="68.20" arrivalLane="-26_4" arrivalPos="61.99" arrivalPosLat="0.00" arrivalSpeed="12.73" duration="54.80" routeLength="206.69" waitingTime="17.80" waitingCount="1" stopTime="0.00" timeLoss="38.49" rerouteNo="0" devices="tripinfo_f_2.5 routing_f_2.5 emissions_f_2.5" vType="vehicle.seat.leon" speedFactor="0.92" vaporized="">
        <emissions CO_abs="6089.884410" CO2_abs="156146.933427" HC_abs="31.392395" PMx_abs="3.359187" NOx_abs="68.347231" fuel_abs="49805.310902" electricity_abs="0"/>
    </tripinfo>
    <tripinfo id="f_2.6" depart="16.20" departLane="-14_3" departPos="4.31" departPosLat="0.00" departSpeed="0.00" departDelay="4.20" arrival="69.70" arrivalLane="-26_3" arrivalPos="61.99" arrivalPosLat="-0.00" arrivalSpeed="15.37" duration="53.50" routeLength="206.69" waitingTime="16.20" waitingCount="1" stopTime="0.00" timeLoss="40.58" rerouteNo="0" devices="tripinfo_f_2.6 routing_f_2.6 emissions_f_2.6" vType="vehicle.seat.leon" speedFactor="1.15" vaporized="">
        <emissions CO_abs="5926.943303" CO2_abs="158640.666197" HC_abs="30.713782" PMx_abs="3.374680" NOx_abs="69.119895" fuel_abs="50600.607198" electricity_abs="0"/>
    </tripinfo>
    <tripinfo id="f_2.7" depart="18.90" departLane="-14_3" departPos="4.31" departPosLat="0.00" departSpeed="0.00" departDelay="4.90" arrival="70.30" arrivalLane="-26_4" arrivalPos="61.99" arrivalPosLat="0.00" arrivalSpeed="13.48" duration="51.40" routeLength="206.69" waitingTime="13.50" waitingCount="2" stopTime="0.00" timeLoss="36.08" rerouteNo="0" devices="tripinfo_f_2.7 routing_f_2.7 emissions_f_2.7" vType="vehicle.seat.leon" speedFactor="0.97" vaporized="">
        <emissions CO_abs="5400.346233" CO2_abs="145300.185653" HC_abs="27.991531" PMx_abs="3.065172" NOx_abs="63.209988" fuel_abs="46345.483387" electricity_abs="0"/>
    </tripinfo>
    <tripinfo id="f_2.8" depart="21.60" departLane="-14_3" departPos="4.31" departPosLat="0.00" departSpeed="0.00" departDelay="5.60" arrival="72.00" arrivalLane="-26_3" arrivalPos="61.99" arrivalPosLat="-0.00" arrivalSpeed="13.23" duration="50.40" routeLength="206.69" waitingTime="12.10" waitingCount="1" stopTime="0.00" timeLoss="34.78" rerouteNo="0" devices="tripinfo_f_2.8 routing_f_2.8 emissions_f_2.8" vType="vehicle.seat.leon" speedFactor="0.96" vaporized="">
        <emissions CO_abs="5216.371186" CO2_abs="143329.680231" HC_abs="27.102672" PMx_abs="3.022147" NOx_abs="62.319390" fuel_abs="45716.895391" electricity_abs="0"/>
    </tripinfo>
    <tripinfo id="f_2.9" depart="24.20" departLane="-14_3" departPos="4.31" departPosLat="0.00" departSpeed="0.00" departDelay="6.20" arrival="72.50" arrivalLane="-26_4" arrivalPos="61.99" arrivalPosLat="0.00" arrivalSpeed="13.68" duration="48.30" routeLength="206.69" waitingTime="9.70" waitingCount="1" stopTime="0.00" timeLoss="33.30" rerouteNo="0" devices="tripinfo_f_2.9 routing_f_2.9 emissions_f_2.9" vType="vehicle.seat.leon" speedFactor="1.00" vaporized="">
        <emissions CO_abs="4830.214205" CO2_abs="136824.075844" HC_abs="25.201387" PMx_abs="2.854286" NOx_abs="59.341192" fuel_abs="43641.785326" electricity_abs="0"/>
    </tripinfo>
    <tripinfo id="f_2.11" depart="29.50" departLane="-14_3" departPos="4.31" departPosLat="0.00" departSpeed="0.00" departDelay="7.50" arrival="74.40" arrivalLane="-26_3" arrivalPos="61.99" arrivalPosLat="0.00" arrivalSpeed="12.38" duration="44.90" routeLength="206.69" waitingTime="6.50" waitingCount="1" stopTime="0.00" timeLoss="28.35" rerouteNo="0" devices="tripinfo_f_2.11 routing_f_2.11 emissions_f_2.11" vType="vehicle.seat.leon" speedFactor="0.90" vaporized="">
        <emissions CO_abs="4404.597033" CO2_abs="128438.004855" HC_abs="23.061978" PMx_abs="2.658496" NOx_abs="55.615558" fuel_abs="40966.878216" electricity_abs="0"/>
    </tripinfo>
    <tripinfo id="f_2.10" depart="26.80" departLane="-14_3" departPos="4.31" departPosLat="0.00" departSpeed="0.00" departDelay="6.80" arrival="74.50" arrivalLane="-26_4" arrivalPos="61.99" arrivalPosLat="0.00" arrivalSpeed="15.23" duration="47.70" routeLength="206.69" waitingTime="6.80" waitingCount="1" stopTime="0.00" timeLoss="34.96" rerouteNo="0" devices="tripinfo_f_2.10 routing_f_2.10 emissions_f_2.10" vType="vehicle.seat.leon" speedFactor="1.17" vaporized="">
        <emissions CO_abs="4624.610166" CO2_abs="135489.144177" HC_abs="24.237777" PMx_abs="2.806275" NOx_abs="58.620879" fuel_abs="43215.915079" electricity_abs="0"/>
    </tripinfo>
    <tripinfo id="f_3.1" depart="3.60" departLane="-19_3" departPos="5.14" departPosLat="0.00" departSpeed="0.00" departDelay="1.60" arrival="78.00" arrivalLane="-0_3" arrivalPos="53.56" arrivalPosLat="-0.00" arrivalSpeed="12.20" duration="74.40" routeLength="395.71" waitingTime="25.00" waitingCount="1" stopTime="0.00" timeLoss="40.18" rerouteNo="0" devices="tripinfo_f_3.1 routing_f_3.1 emissions_f_3.1" vType="vehicle.mercedes.coupe" speedFactor="0.89" vaporized="">
        <emissions CO_abs="7420.379277" CO2_abs="222162.812478" HC_abs="38.976367" PMx_abs="4.539797" NOx_abs="95.493709" fuel_abs="70861.520818" electricity_abs="0"/>
    </tripinfo>
    <tripinfo id="f_3.0" depart="0.00" departLane="-19_3" departPos="5.14" departPosLat="0.00" departSpeed="0.00" departDelay="0.00" arrival="78.10" arrivalLane="-0_4" arrivalPos="53.56" arrivalPosLat="0.00" arrivalSpeed="13.92" duration="78.10" routeLength="395.71" waitingTime="34.90" waitingCount="1" stopTime="0.00" timeLoss="47.92" rerouteNo="0" devices="tripinfo_f_3.0 routing_f_3.0 emissions_f_3.0" vType="vehicle.mercedes.coupe" speedFactor="1.01" vaporized="">
        <emissions CO_abs="8950.535010" CO2_abs="258395.790215" HC_abs="46.792800" PMx_abs="5.424889" NOx_abs="111.718662" fuel_abs="82418.522406" electricity_abs="0"/>
    </tripinfo>
    <tripinfo id="f_3.2" depart="7.40" departLane="-19_3" departPos="5.14" departPosLat="0.00" departSpeed="0.00" departDelay="3.40" arrival="80.10" arrivalLane="-0_4" arrivalPos="53.56" arrivalPosLat="0.00" arrivalSpeed="14.51" duration="72.70" routeLength="395.71" waitingTime="17.90" waitingCount="1" stopTime="0.00" timeLoss="43.60" rerouteNo="0" devices="tripinfo_f_3.2 routing_f_3.2 emissions_f_3.2" vType="vehicle.mercedes.coupe" speedFactor="1.05" vaporized="">
        <emissions CO_abs="6810.391667" CO2_abs="212798.948015" HC_abs="35.987623" PMx_abs="4.324906" NOx_abs="91.308515" fuel_abs="67874.641007" electricity_abs="0"/>
    </tripinfo>
    <tripinfo id="f_3.5" depart="18.30" departLane="-19_3" departPos="5.14" departPosLat="0.00" departSpeed="0.00" departDelay="8.30" arrival="80.20" arrivalLane="-0_3" arrivalPos="53.56" arrivalPosLat="-0.00" arrivalSpeed="13.13" duration="61.90" routeLength="395.71" waitingTime="0.00" waitingCount="0" stopTime="0.00" timeLoss="29.88" rerouteNo="0" devices="tripinfo_f_3.5 routing_f_3.5 emissions_f_3.5" vType="vehicle.mercedes.coupe" speedFactor="0.95" vaporized="">
        <emissions CO_abs="3991.728475" CO2_abs="159419.989845" HC_abs="21.882510" PMx_abs="3.001530" NOx_abs="66.962259" fuel_abs="50848.372592" electricity_abs="0"/>
    </tripinfo>
    <tripinfo id="f_3.3" depart="11.00" departLane="-19_3" departPos="5.14" departPosLat="0.00" departSpeed="0.00" departDelay="5.00" arrival="82.30" arrivalLane="-0_4" arrivalPos="53.56" arrivalPosLat="0.00" arrivalSpeed="12.88" duration="71.30" routeLength="395.71" waitingTime="14.10" waitingCount="1" stopTime="0.00" timeLoss="39.01" rerouteNo="0" devices="tripinfo_f_3.3 routing_f_3.3 emissions_f_3.3" vType="vehicle.mercedes.coupe" speedFactor="0.94" vaporized="">
        <emissions CO_abs="6322.677462" CO2_abs="198911.442112" HC_abs="33.395902" PMx_abs="3.964058" NOx_abs="84.816922" fuel_abs="63445.121732" electricity_abs="0"/>
    </tripinfo>
    <tripinfo id="f_3.6" depart="21.90" departLane="-19_3" departPos="5.14" departPosLat="0.00" departSpeed="0.00" departDelay="9.90" arrival="82.40" arrivalLane="-0_3" arrivalPos="53.56" arrivalPosLat="-0.00" arrivalSpeed="13.90" duration="60.50" routeLength="395.71" waitingTime="0.00" waitingCount="0" stopTime="0.00" timeLoss="30.21" rerouteNo="0" devices="tripinfo_f_3.6 routing_f_3.6 emissions_f_3.6" vType="vehicle.mercedes.coupe" speedFactor="1.01" vaporized="">
        <emissions CO_abs="3667.149690" CO2_abs="154200.263598" HC_abs="20.295548" PMx_abs="2.912596" NOx_abs="64.826816" fuel_abs="49183.362212" electricity_abs="0"/>
    </tripinfo>
    <tripinfo id="f_3.4" depart="14.60" departLane="-19_3" departPos="5.14" departPosLat="0.00" departSpeed="0.00" departDelay="6.60" arrival="84.50" arrivalLane="-0_4" arrivalPos="53.56" arrivalPosLat="0.00" arrivalSpeed="13.40" duration="69.90" routeLength="395.71" waitingTime="11.10" waitingCount="1" stopTime="0.00" timeLoss="38.72" rerouteNo="0" devices="tripinfo_f_3.4 routing_f_3.4 emissions_f_3.4" vType="vehicle.mercedes.coupe" speedFactor="0.97" vaporized="">
        <emissions CO_abs="5943.734465" CO2_abs="190751.953188" HC_abs="31.496336" PMx_abs="3.788097" NOx_abs="81.256019" fuel_abs="60842.498399" electricity_abs="0"/>
    </tripinfo>
    <tripinfo id="f_3.7" depart="25.50" departLane="-19_3" departPos="5.14" departPosLat="0.00" departSpeed="0.00" departDelay="11.50" arrival="84.50" arrivalLane="-0_3" arrivalPos="53.56" arrivalPosLat="-0.00" arrivalSpeed="15.12" duration="59.00" routeLength="395.71" waitingTime="5.50" waitingCount="1" stopTime="0.00" timeLoss="33.06" rerouteNo="0" devices="tripinfo_f_3.7 routing_f_3.7 emissions_f_3.7" vType="vehicle.mercedes.coupe" speedFactor="1.18" vaporized="">
        <emissions CO_abs="4580.831630" CO2_abs="179438.430725" HC_abs="25.058879" PMx_abs="3.469817" NOx_abs="75.912566" fuel_abs="57233.382663" electricity_abs="0"/>
    </tripinfo>
    <tripinfo id="f_3.8" depart="29.00" departLane="-19_3" departPos="5.14" departPosLat="0.00" departSpeed="0.00" departDelay="13.00" arrival="86.60" arrivalLane="-0_4" arrivalPos="53.56" arrivalPosLat="0.00" arrivalSpeed="15.02" duration="57.60" routeLength="395.71" waitingTime="0.10" waitingCount="1" stopTime="0.00" timeLoss="29.71" rerouteNo="0" devices="tripinfo_f_3.8 routing_f_3.8 emissions_f_3.8" vType="vehicle.mercedes.coupe" speedFactor="1.09" vaporized="">
        <emissions CO_abs="3957.064773" CO2_abs="167166.217423" HC_abs="21.904230" PMx_abs="3.185335" NOx_abs="70.421849" fuel_abs="53318.911354" electricity_abs="0"/>
    </tripinfo>
    <tripinfo id="f_3.9" depart="32.60" departLane="-19_3" departPos="5.14" departPosLat="0.00" departSpeed="0.00" departDelay="14.60" arrival="89.70" arrivalLane="-0_4" arrivalPos="53.56" arrivalPosLat="0.00" arrivalSpeed="12.48" duration="57.10" routeLength="395.71" waitingTime="0.80" waitingCount="1" stopTime="0.00" timeLoss="23.38" rerouteNo="0" devices="tripinfo_f_3.9 routing_f_3.9 emissions_f_3.9" vType="vehicle.mercedes.coupe" speedFactor="0.90" vaporized="">
        <emissions CO_abs="3696.273293" CO2_abs="153088.304377" HC_abs="20.383416" PMx_abs="2.847315" NOx_abs="64.089097" fuel_abs="48828.779028" electricity_abs="0"/>
    </tripinfo>