<?xml version="1.0" encoding="UTF-8"?>

<!-- generated on 2023-09-13 22:12:55 by Eclipse SUMO sumo Version 1.17.0
<configuration xmlns:xsi="http://www.w3.org/2001/XMLSchema-instance" xsi:noNamespaceSchemaLocation="http://sumo.dlr.de/xsd/sumoConfiguration.xsd">

    <input>
        <net-file value="configs/Town05/Town05.net.xml"/>
        <route-files value="configs/Town05/Town05.rou.xml"/>
    </input>

    <output>
        <queue-output value="queue.xml"/>
        <tripinfo-output value="tripinfo.xml"/>
        <collision-output value="collision.xml"/>
    </output>

    <time>
        <step-length value="0.1"/>
    </time>

    <processing>
        <lateral-resolution value="0.25"/>
        <collision.check-junctions value="true"/>
    </processing>

    <emissions>
        <device.emissions.probability value="1.0"/>
    </emissions>

    <traci_server>
        <remote-port value="3001"/>
        <num-clients value="1"/>
    </traci_server>

    <gui_only>
        <gui-settings-file value="configs/Town05/viewsettings.xml"/>
    </gui_only>

</configuration>
-->

<queue-export xmlns:xsi="http://www.w3.org/2001/XMLSchema-instance" xsi:noNamespaceSchemaLocation="http://sumo.dlr.de/xsd/queue_file.xsd">
    <data timestep="0.00">
        <lanes/>
    </data>
    <data timestep="0.10">
        <lanes/>
    </data>
    <data timestep="0.20">
        <lanes/>
    </data>
    <data timestep="0.30">
        <lanes/>
    </data>
    <data timestep="0.40">
        <lanes/>
    </data>
    <data timestep="0.50">
        <lanes/>
    </data>
    <data timestep="0.60">
        <lanes/>
    </data>
    <data timestep="0.70">
        <lanes/>
    </data>
    <data timestep="0.80">
        <lanes/>
    </data>
    <data timestep="0.90">
        <lanes/>
    </data>
    <data timestep="1.00">
        <lanes/>
    </data>
    <data timestep="1.10">
        <lanes/>
    </data>
    <data timestep="1.20">
        <lanes/>
    </data>
    <data timestep="1.30">
        <lanes/>
    </data>
    <data timestep="1.40">
        <lanes/>
    </data>
    <data timestep="1.50">
        <lanes/>
    </data>
    <data timestep="1.60">
        <lanes/>
    </data>
    <data timestep="1.70">
        <lanes/>
    </data>
    <data timestep="1.80">
        <lanes/>
    </data>
    <data timestep="1.90">
        <lanes/>
    </data>
    <data timestep="2.00">
        <lanes/>
    </data>
    <data timestep="2.10">
        <lanes/>
    </data>
    <data timestep="2.20">
        <lanes/>
    </data>
    <data timestep="2.30">
        <lanes/>
    </data>
    <data timestep="2.40">
        <lanes/>
    </data>
    <data timestep="2.50">
        <lanes/>
    </data>
    <data timestep="2.60">
        <lanes/>
    </data>
    <data timestep="2.70">
        <lanes/>
    </data>
    <data timestep="2.80">
        <lanes/>
    </data>
    <data timestep="2.90">
        <lanes/>
    </data>
    <data timestep="3.00">
        <lanes/>
    </data>
    <data timestep="3.10">
        <lanes/>
    </data>
    <data timestep="3.20">
        <lanes/>
    </data>
    <data timestep="3.30">
        <lanes/>
    </data>
    <data timestep="3.40">
        <lanes/>
    </data>
    <data timestep="3.50">
        <lanes/>
    </data>
    <data timestep="3.60">
        <lanes/>
    </data>
    <data timestep="3.70">
        <lanes/>
    </data>
    <data timestep="3.80">
        <lanes/>
    </data>
    <data timestep="3.90">
        <lanes/>
    </data>
    <data timestep="4.00">
        <lanes/>
    </data>
    <data timestep="4.10">
        <lanes/>
    </data>
    <data timestep="4.20">
        <lanes/>
    </data>
    <data timestep="4.30">
        <lanes/>
    </data>
    <data timestep="4.40">
        <lanes/>
    </data>
    <data timestep="4.50">
        <lanes/>
    </data>
    <data timestep="4.60">
        <lanes/>
    </data>
    <data timestep="4.70">
        <lanes/>
    </data>
    <data timestep="4.80">
        <lanes/>
    </data>
    <data timestep="4.90">
        <lanes/>
    </data>
    <data timestep="5.00">
        <lanes/>
    </data>
    <data timestep="5.10">
        <lanes/>
    </data>
    <data timestep="5.20">
        <lanes/>
    </data>
    <data timestep="5.30">
        <lanes/>
    </data>
    <data timestep="5.40">
        <lanes/>
    </data>
    <data timestep="5.50">
        <lanes/>
    </data>
    <data timestep="5.60">
        <lanes/>
    </data>
    <data timestep="5.70">
        <lanes/>
    </data>
    <data timestep="5.80">
        <lanes/>
    </data>
    <data timestep="5.90">
        <lanes/>
    </data>
    <data timestep="6.00">
        <lanes/>
    </data>
    <data timestep="6.10">
        <lanes/>
    </data>
    <data timestep="6.20">
        <lanes/>
    </data>
    <data timestep="6.30">
        <lanes/>
    </data>
    <data timestep="6.40">
        <lanes/>
    </data>
    <data timestep="6.50">
        <lanes/>
    </data>
    <data timestep="6.60">
        <lanes/>
    </data>
    <data timestep="6.70">
        <lanes/>
    </data>
    <data timestep="6.80">
        <lanes/>
    </data>
    <data timestep="6.90">
        <lanes/>
    </data>
    <data timestep="7.00">
        <lanes/>
    </data>
    <data timestep="7.10">
        <lanes/>
    </data>
    <data timestep="7.20">
        <lanes/>
    </data>
    <data timestep="7.30">
        <lanes/>
    </data>
    <data timestep="7.40">
        <lanes/>
    </data>
    <data timestep="7.50">
        <lanes/>
    </data>
    <data timestep="7.60">
        <lanes/>
    </data>
    <data timestep="7.70">
        <lanes/>
    </data>
    <data timestep="7.80">
        <lanes/>
    </data>
    <data timestep="7.90">
        <lanes/>
    </data>
    <data timestep="8.00">
        <lanes/>
    </data>
    <data timestep="8.10">
        <lanes/>
    </data>
    <data timestep="8.20">
        <lanes/>
    </data>
    <data timestep="8.30">
        <lanes/>
    </data>
    <data timestep="8.40">
        <lanes/>
    </data>
    <data timestep="8.50">
        <lanes/>
    </data>
    <data timestep="8.60">
        <lanes/>
    </data>
    <data timestep="8.70">
        <lanes/>
    </data>
    <data timestep="8.80">
        <lanes/>
    </data>
    <data timestep="8.90">
        <lanes/>
    </data>
    <data timestep="9.00">
        <lanes/>
    </data>
    <data timestep="9.10">
        <lanes/>
    </data>
    <data timestep="9.20">
        <lanes/>
    </data>
    <data timestep="9.30">
        <lanes/>
    </data>
    <data timestep="9.40">
        <lanes/>
    </data>
    <data timestep="9.50">
        <lanes/>
    </data>
    <data timestep="9.60">
        <lanes/>
    </data>
    <data timestep="9.70">
        <lanes/>
    </data>
    <data timestep="9.80">
        <lanes/>
    </data>
    <data timestep="9.90">
        <lanes/>
    </data>
    <data timestep="10.00">
        <lanes/>
    </data>
    <data timestep="10.10">
        <lanes/>
    </data>
    <data timestep="10.20">
        <lanes/>
    </data>
    <data timestep="10.30">
        <lanes/>
    </data>
    <data timestep="10.40">
        <lanes/>
    </data>
    <data timestep="10.50">
        <lanes/>
    </data>
    <data timestep="10.60">
        <lanes/>
    </data>
    <data timestep="10.70">
        <lanes/>
    </data>
    <data timestep="10.80">
        <lanes/>
    </data>
    <data timestep="10.90">
        <lanes/>
    </data>
    <data timestep="11.00">
        <lanes/>
    </data>
    <data timestep="11.10">
        <lanes/>
    </data>
    <data timestep="11.20">
        <lanes/>
    </data>
    <data timestep="11.30">
        <lanes/>
    </data>
    <data timestep="11.40">
        <lanes/>
    </data>
    <data timestep="11.50">
        <lanes/>
    </data>
    <data timestep="11.60">
        <lanes/>
    </data>
    <data timestep="11.70">
        <lanes/>
    </data>
    <data timestep="11.80">
        <lanes/>
    </data>
    <data timestep="11.90">
        <lanes/>
    </data>
    <data timestep="12.00">
        <lanes/>
    </data>
    <data timestep="12.10">
        <lanes/>
    </data>
    <data timestep="12.20">
        <lanes/>
    </data>
    <data timestep="12.30">
        <lanes/>
    </data>
    <data timestep="12.40">
        <lanes/>
    </data>
    <data timestep="12.50">
        <lanes/>
    </data>
    <data timestep="12.60">
        <lanes/>
    </data>
    <data timestep="12.70">
        <lanes/>
    </data>
    <data timestep="12.80">
        <lanes/>
    </data>
    <data timestep="12.90">
        <lanes/>
    </data>
    <data timestep="13.00">
        <lanes/>
    </data>
    <data timestep="13.10">
        <lanes>
            <lane id="-29_3" queueing_time="0.00" queueing_length="0.00" queueing_length_experimental="6.17"/>
        </lanes>
    </data>
    <data timestep="13.20">
        <lanes>
            <lane id="-29_3" queueing_time="0.00" queueing_length="0.00" queueing_length_experimental="6.08"/>
        </lanes>
    </data>
    <data timestep="13.30">
        <lanes>
            <lane id="-29_3" queueing_time="0.00" queueing_length="0.00" queueing_length_experimental="6.04"/>
        </lanes>
    </data>
    <data timestep="13.40">
        <lanes>
            <lane id="-29_3" queueing_time="0.10" queueing_length="6.04" queueing_length_experimental="6.04"/>
        </lanes>
    </data>
    <data timestep="13.50">
        <lanes>
            <lane id="-29_3" queueing_time="0.20" queueing_length="6.04" queueing_length_experimental="6.04"/>
        </lanes>
    </data>
    <data timestep="13.60">
        <lanes>
            <lane id="-29_3" queueing_time="0.30" queueing_length="6.04" queueing_length_experimental="6.04"/>
        </lanes>
    </data>
    <data timestep="13.70">
        <lanes>
            <lane id="-29_3" queueing_time="0.40" queueing_length="6.04" queueing_length_experimental="6.04"/>
        </lanes>
    </data>
    <data timestep="13.80">
        <lanes>
            <lane id="-29_3" queueing_time="0.50" queueing_length="6.04" queueing_length_experimental="6.04"/>
        </lanes>
    </data>
    <data timestep="13.90">
        <lanes>
            <lane id="-29_3" queueing_time="0.60" queueing_length="6.04" queueing_length_experimental="6.04"/>
        </lanes>
    </data>
    <data timestep="14.00">
        <lanes>
            <lane id="-29_3" queueing_time="0.70" queueing_length="6.04" queueing_length_experimental="6.04"/>
        </lanes>
    </data>
    <data timestep="14.10">
        <lanes>
            <lane id="-29_3" queueing_time="0.80" queueing_length="6.04" queueing_length_experimental="6.04"/>
        </lanes>
    </data>
    <data timestep="14.20">
        <lanes>
            <lane id="-29_3" queueing_time="0.90" queueing_length="6.04" queueing_length_experimental="6.04"/>
        </lanes>
    </data>
    <data timestep="14.30">
        <lanes>
            <lane id="-29_3" queueing_time="1.00" queueing_length="6.04" queueing_length_experimental="6.04"/>
        </lanes>
    </data>
    <data timestep="14.40">
        <lanes>
            <lane id="-16_3" queueing_time="0.00" queueing_length="0.00" queueing_length_experimental="5.30"/>
            <lane id="-29_3" queueing_time="1.10" queueing_length="6.04" queueing_length_experimental="6.04"/>
        </lanes>
    </data>
    <data timestep="14.50">
        <lanes>
            <lane id="-16_3" queueing_time="0.00" queueing_length="0.00" queueing_length_experimental="5.23"/>
            <lane id="-29_3" queueing_time="1.20" queueing_length="6.04" queueing_length_experimental="6.04"/>
        </lanes>
    </data>
    <data timestep="14.60">
        <lanes>
            <lane id="-16_3" queueing_time="0.00" queueing_length="0.00" queueing_length_experimental="5.21"/>
            <lane id="-29_3" queueing_time="1.30" queueing_length="6.04" queueing_length_experimental="6.04"/>
        </lanes>
    </data>
    <data timestep="14.70">
        <lanes>
            <lane id="-16_3" queueing_time="0.10" queueing_length="5.21" queueing_length_experimental="5.21"/>
            <lane id="-29_3" queueing_time="1.40" queueing_length="6.04" queueing_length_experimental="6.04"/>
        </lanes>
    </data>
    <data timestep="14.80">
        <lanes>
            <lane id="-16_3" queueing_time="0.20" queueing_length="5.21" queueing_length_experimental="5.21"/>
            <lane id="-29_3" queueing_time="1.50" queueing_length="6.04" queueing_length_experimental="6.04"/>
        </lanes>
    </data>
    <data timestep="14.90">
        <lanes>
            <lane id="-16_3" queueing_time="0.30" queueing_length="5.21" queueing_length_experimental="5.21"/>
            <lane id="-29_3" queueing_time="1.60" queueing_length="6.04" queueing_length_experimental="6.04"/>
        </lanes>
    </data>
    <data timestep="15.00">
        <lanes>
            <lane id="-16_3" queueing_time="0.40" queueing_length="5.21" queueing_length_experimental="5.21"/>
            <lane id="-29_3" queueing_time="1.70" queueing_length="6.04" queueing_length_experimental="6.04"/>
        </lanes>
    </data>
    <data timestep="15.10">
        <lanes>
            <lane id="-16_3" queueing_time="0.50" queueing_length="5.21" queueing_length_experimental="5.21"/>
            <lane id="-29_3" queueing_time="1.80" queueing_length="6.04" queueing_length_experimental="6.04"/>
        </lanes>
    </data>
    <data timestep="15.20">
        <lanes>
            <lane id="-16_3" queueing_time="0.60" queueing_length="5.21" queueing_length_experimental="5.21"/>
            <lane id="-29_3" queueing_time="1.90" queueing_length="6.04" queueing_length_experimental="6.04"/>
        </lanes>
    </data>
    <data timestep="15.30">
        <lanes>
            <lane id="-16_3" queueing_time="0.70" queueing_length="5.21" queueing_length_experimental="5.21"/>
            <lane id="-29_3" queueing_time="2.00" queueing_length="6.04" queueing_length_experimental="6.04"/>
        </lanes>
    </data>
    <data timestep="15.40">
        <lanes>
            <lane id="-16_3" queueing_time="0.80" queueing_length="5.21" queueing_length_experimental="5.21"/>
            <lane id="-29_3" queueing_time="2.10" queueing_length="6.04" queueing_length_experimental="6.04"/>
        </lanes>
    </data>
    <data timestep="15.50">
        <lanes>
            <lane id="-16_3" queueing_time="0.90" queueing_length="5.21" queueing_length_experimental="5.21"/>
            <lane id="-29_3" queueing_time="2.20" queueing_length="6.04" queueing_length_experimental="6.04"/>
        </lanes>
    </data>
    <data timestep="15.60">
        <lanes>
            <lane id="-16_3" queueing_time="1.00" queueing_length="5.21" queueing_length_experimental="5.21"/>
            <lane id="-29_3" queueing_time="2.30" queueing_length="6.04" queueing_length_experimental="6.04"/>
        </lanes>
    </data>
    <data timestep="15.70">
        <lanes>
            <lane id="-16_3" queueing_time="1.10" queueing_length="5.21" queueing_length_experimental="5.21"/>
            <lane id="-29_3" queueing_time="2.40" queueing_length="6.04" queueing_length_experimental="6.04"/>
        </lanes>
    </data>
    <data timestep="15.80">
        <lanes>
            <lane id="-16_3" queueing_time="1.20" queueing_length="5.21" queueing_length_experimental="5.21"/>
            <lane id="-29_3" queueing_time="2.50" queueing_length="6.04" queueing_length_experimental="6.04"/>
        </lanes>
    </data>
    <data timestep="15.90">
        <lanes>
            <lane id="-16_3" queueing_time="1.30" queueing_length="5.21" queueing_length_experimental="5.21"/>
            <lane id="-29_3" queueing_time="2.60" queueing_length="6.04" queueing_length_experimental="6.04"/>
            <lane id="-29_4" queueing_time="0.00" queueing_length="0.00" queueing_length_experimental="6.18"/>
        </lanes>
    </data>
    <data timestep="16.00">
        <lanes>
            <lane id="-16_3" queueing_time="1.40" queueing_length="5.21" queueing_length_experimental="5.21"/>
            <lane id="-29_3" queueing_time="2.70" queueing_length="6.04" queueing_length_experimental="6.04"/>
            <lane id="-29_4" queueing_time="0.00" queueing_length="0.00" queueing_length_experimental="6.09"/>
        </lanes>
    </data>
    <data timestep="16.10">
        <lanes>
            <lane id="-16_3" queueing_time="1.50" queueing_length="5.21" queueing_length_experimental="5.21"/>
            <lane id="-29_3" queueing_time="2.80" queueing_length="6.04" queueing_length_experimental="6.04"/>
            <lane id="-29_4" queueing_time="0.00" queueing_length="0.00" queueing_length_experimental="6.04"/>
        </lanes>
    </data>
    <data timestep="16.20">
        <lanes>
            <lane id="-16_3" queueing_time="1.60" queueing_length="5.21" queueing_length_experimental="5.21"/>
            <lane id="-29_3" queueing_time="2.90" queueing_length="6.04" queueing_length_experimental="6.04"/>
            <lane id="-29_4" queueing_time="0.10" queueing_length="6.04" queueing_length_experimental="6.04"/>
        </lanes>
    </data>
    <data timestep="16.30">
        <lanes>
            <lane id="-16_3" queueing_time="1.70" queueing_length="5.21" queueing_length_experimental="5.21"/>
            <lane id="-29_3" queueing_time="3.00" queueing_length="6.04" queueing_length_experimental="6.04"/>
            <lane id="-29_4" queueing_time="0.20" queueing_length="6.04" queueing_length_experimental="6.04"/>
        </lanes>
    </data>
    <data timestep="16.40">
        <lanes>
            <lane id="-16_3" queueing_time="1.80" queueing_length="5.21" queueing_length_experimental="5.21"/>
            <lane id="-29_3" queueing_time="3.10" queueing_length="6.04" queueing_length_experimental="6.04"/>
            <lane id="-29_4" queueing_time="0.30" queueing_length="6.04" queueing_length_experimental="6.04"/>
        </lanes>
    </data>
    <data timestep="16.50">
        <lanes>
            <lane id="-16_3" queueing_time="1.90" queueing_length="5.21" queueing_length_experimental="5.21"/>
            <lane id="-29_3" queueing_time="3.20" queueing_length="6.04" queueing_length_experimental="6.04"/>
            <lane id="-29_4" queueing_time="0.40" queueing_length="6.04" queueing_length_experimental="6.04"/>
        </lanes>
    </data>
    <data timestep="16.60">
        <lanes>
            <lane id="-16_3" queueing_time="2.00" queueing_length="5.21" queueing_length_experimental="5.21"/>
            <lane id="-29_3" queueing_time="3.30" queueing_length="6.04" queueing_length_experimental="6.04"/>
            <lane id="-29_4" queueing_time="0.50" queueing_length="6.04" queueing_length_experimental="6.04"/>
        </lanes>
    </data>
    <data timestep="16.70">
        <lanes>
            <lane id="-16_3" queueing_time="2.10" queueing_length="5.21" queueing_length_experimental="5.21"/>
            <lane id="-29_3" queueing_time="3.40" queueing_length="6.04" queueing_length_experimental="6.04"/>
            <lane id="-29_4" queueing_time="0.60" queueing_length="6.04" queueing_length_experimental="6.04"/>
        </lanes>
    </data>
    <data timestep="16.80">
        <lanes>
            <lane id="-16_3" queueing_time="2.20" queueing_length="5.21" queueing_length_experimental="5.21"/>
            <lane id="-29_3" queueing_time="3.50" queueing_length="6.04" queueing_length_experimental="6.04"/>
            <lane id="-29_4" queueing_time="0.70" queueing_length="6.04" queueing_length_experimental="6.04"/>
        </lanes>
    </data>
    <data timestep="16.90">
        <lanes>
            <lane id="-16_3" queueing_time="2.30" queueing_length="5.21" queueing_length_experimental="12.74"/>
            <lane id="-29_3" queueing_time="3.60" queueing_length="6.04" queueing_length_experimental="6.04"/>
            <lane id="-29_4" queueing_time="0.80" queueing_length="6.04" queueing_length_experimental="6.04"/>
        </lanes>
    </data>
    <data timestep="17.00">
        <lanes>
            <lane id="-16_3" queueing_time="2.40" queueing_length="5.21" queueing_length_experimental="12.63"/>
            <lane id="-29_3" queueing_time="3.70" queueing_length="6.04" queueing_length_experimental="6.04"/>
            <lane id="-29_4" queueing_time="0.90" queueing_length="6.04" queueing_length_experimental="6.04"/>
        </lanes>
    </data>
    <data timestep="17.10">
        <lanes>
            <lane id="-16_3" queueing_time="2.50" queueing_length="5.21" queueing_length_experimental="12.53"/>
            <lane id="-29_3" queueing_time="3.80" queueing_length="6.04" queueing_length_experimental="6.04"/>
            <lane id="-29_4" queueing_time="1.00" queueing_length="6.04" queueing_length_experimental="6.04"/>
        </lanes>
    </data>
    <data timestep="17.20">
        <lanes>
            <lane id="-16_3" queueing_time="2.60" queueing_length="5.21" queueing_length_experimental="12.44"/>
            <lane id="-29_3" queueing_time="3.90" queueing_length="6.04" queueing_length_experimental="6.04"/>
            <lane id="-29_4" queueing_time="1.10" queueing_length="6.04" queueing_length_experimental="6.04"/>
        </lanes>
    </data>
    <data timestep="17.30">
        <lanes>
            <lane id="-16_3" queueing_time="2.70" queueing_length="5.21" queueing_length_experimental="12.36"/>
            <lane id="-29_3" queueing_time="4.00" queueing_length="6.04" queueing_length_experimental="6.04"/>
            <lane id="-29_4" queueing_time="1.20" queueing_length="6.04" queueing_length_experimental="6.04"/>
        </lanes>
    </data>
    <data timestep="17.40">
        <lanes>
            <lane id="-16_3" queueing_time="2.80" queueing_length="5.21" queueing_length_experimental="12.29"/>
            <lane id="-29_3" queueing_time="4.10" queueing_length="6.04" queueing_length_experimental="6.04"/>
            <lane id="-29_4" queueing_time="1.30" queueing_length="6.04" queueing_length_experimental="6.04"/>
        </lanes>
    </data>
    <data timestep="17.50">
        <lanes>
            <lane id="-16_3" queueing_time="2.90" queueing_length="5.21" queueing_length_experimental="12.23"/>
            <lane id="-29_3" queueing_time="4.20" queueing_length="6.04" queueing_length_experimental="6.04"/>
            <lane id="-29_4" queueing_time="1.40" queueing_length="6.04" queueing_length_experimental="6.04"/>
        </lanes>
    </data>
    <data timestep="17.60">
        <lanes>
            <lane id="-16_3" queueing_time="3.00" queueing_length="5.21" queueing_length_experimental="12.18"/>
            <lane id="-29_3" queueing_time="4.30" queueing_length="6.04" queueing_length_experimental="6.04"/>
            <lane id="-29_4" queueing_time="1.50" queueing_length="6.04" queueing_length_experimental="6.04"/>
        </lanes>
    </data>
    <data timestep="17.70">
        <lanes>
            <lane id="-16_3" queueing_time="3.10" queueing_length="5.21" queueing_length_experimental="12.14"/>
            <lane id="-29_3" queueing_time="4.40" queueing_length="6.04" queueing_length_experimental="6.04"/>
            <lane id="-29_4" queueing_time="1.60" queueing_length="6.04" queueing_length_experimental="6.04"/>
        </lanes>
    </data>
    <data timestep="17.80">
        <lanes>
            <lane id="-16_3" queueing_time="3.20" queueing_length="5.21" queueing_length_experimental="12.11"/>
            <lane id="-29_3" queueing_time="4.50" queueing_length="6.04" queueing_length_experimental="6.04"/>
            <lane id="-29_4" queueing_time="1.70" queueing_length="6.04" queueing_length_experimental="6.04"/>
        </lanes>
    </data>
    <data timestep="17.90">
        <lanes>
            <lane id="-16_3" queueing_time="3.30" queueing_length="5.21" queueing_length_experimental="12.08"/>
            <lane id="-29_3" queueing_time="4.60" queueing_length="6.04" queueing_length_experimental="6.04"/>
            <lane id="-29_4" queueing_time="1.80" queueing_length="6.04" queueing_length_experimental="6.04"/>
        </lanes>
    </data>
    <data timestep="18.00">
        <lanes>
            <lane id="-16_3" queueing_time="3.40" queueing_length="5.21" queueing_length_experimental="12.05"/>
            <lane id="-29_3" queueing_time="4.70" queueing_length="6.04" queueing_length_experimental="6.04"/>
            <lane id="-29_4" queueing_time="1.90" queueing_length="6.04" queueing_length_experimental="6.04"/>
        </lanes>
    </data>
    <data timestep="18.10">
        <lanes>
            <lane id="-16_3" queueing_time="3.50" queueing_length="5.21" queueing_length_experimental="12.03"/>
            <lane id="-29_3" queueing_time="4.80" queueing_length="6.04" queueing_length_experimental="6.04"/>
            <lane id="-29_4" queueing_time="2.00" queueing_length="6.04" queueing_length_experimental="6.04"/>
        </lanes>
    </data>
    <data timestep="18.20">
        <lanes>
            <lane id="-16_3" queueing_time="3.60" queueing_length="5.21" queueing_length_experimental="12.01"/>
            <lane id="-29_3" queueing_time="4.90" queueing_length="6.04" queueing_length_experimental="6.04"/>
            <lane id="-29_4" queueing_time="2.10" queueing_length="6.04" queueing_length_experimental="6.04"/>
        </lanes>
    </data>
    <data timestep="18.30">
        <lanes>
            <lane id="-16_3" queueing_time="3.70" queueing_length="5.21" queueing_length_experimental="12.00"/>
            <lane id="-29_3" queueing_time="5.00" queueing_length="6.04" queueing_length_experimental="6.04"/>
            <lane id="-29_4" queueing_time="2.20" queueing_length="6.04" queueing_length_experimental="6.04"/>
        </lanes>
    </data>
    <data timestep="18.40">
        <lanes>
            <lane id="-16_3" queueing_time="3.80" queueing_length="5.21" queueing_length_experimental="11.99"/>
            <lane id="-29_3" queueing_time="5.10" queueing_length="6.04" queueing_length_experimental="6.04"/>
            <lane id="-29_4" queueing_time="2.30" queueing_length="6.04" queueing_length_experimental="6.04"/>
        </lanes>
    </data>
    <data timestep="18.50">
        <lanes>
            <lane id="-16_3" queueing_time="3.90" queueing_length="5.21" queueing_length_experimental="11.98"/>
            <lane id="-29_3" queueing_time="5.20" queueing_length="6.04" queueing_length_experimental="6.04"/>
            <lane id="-29_4" queueing_time="2.40" queueing_length="6.04" queueing_length_experimental="6.04"/>
        </lanes>
    </data>
    <data timestep="18.60">
        <lanes>
            <lane id="-16_3" queueing_time="4.00" queueing_length="11.97" queueing_length_experimental="11.97"/>
            <lane id="-29_3" queueing_time="5.30" queueing_length="6.04" queueing_length_experimental="6.04"/>
            <lane id="-29_4" queueing_time="2.50" queueing_length="6.04" queueing_length_experimental="6.04"/>
        </lanes>
    </data>
    <data timestep="18.70">
        <lanes>
            <lane id="-16_3" queueing_time="4.10" queueing_length="11.96" queueing_length_experimental="11.96"/>
            <lane id="-29_3" queueing_time="5.40" queueing_length="6.04" queueing_length_experimental="6.04"/>
            <lane id="-29_4" queueing_time="2.60" queueing_length="6.04" queueing_length_experimental="6.04"/>
        </lanes>
    </data>
    <data timestep="18.80">
        <lanes>
            <lane id="-16_3" queueing_time="4.20" queueing_length="11.95" queueing_length_experimental="11.95"/>
            <lane id="-29_3" queueing_time="5.50" queueing_length="6.04" queueing_length_experimental="6.04"/>
            <lane id="-29_4" queueing_time="2.70" queueing_length="6.04" queueing_length_experimental="6.04"/>
        </lanes>
    </data>
    <data timestep="18.90">
        <lanes>
            <lane id="-16_3" queueing_time="4.30" queueing_length="11.95" queueing_length_experimental="11.95"/>
            <lane id="-29_3" queueing_time="5.60" queueing_length="6.04" queueing_length_experimental="6.04"/>
            <lane id="-29_4" queueing_time="2.80" queueing_length="6.04" queueing_length_experimental="6.04"/>
        </lanes>
    </data>
    <data timestep="19.00">
        <lanes>
            <lane id="-16_3" queueing_time="4.40" queueing_length="11.94" queueing_length_experimental="11.94"/>
            <lane id="-29_3" queueing_time="5.70" queueing_length="6.04" queueing_length_experimental="14.34"/>
            <lane id="-29_4" queueing_time="2.90" queueing_length="6.04" queueing_length_experimental="6.04"/>
        </lanes>
    </data>
    <data timestep="19.10">
        <lanes>
            <lane id="-16_3" queueing_time="4.50" queueing_length="11.94" queueing_length_experimental="11.94"/>
            <lane id="-29_3" queueing_time="5.80" queueing_length="6.04" queueing_length_experimental="14.23"/>
            <lane id="-29_4" queueing_time="3.00" queueing_length="6.04" queueing_length_experimental="6.04"/>
        </lanes>
    </data>
    <data timestep="19.20">
        <lanes>
            <lane id="-16_3" queueing_time="4.60" queueing_length="11.94" queueing_length_experimental="11.94"/>
            <lane id="-29_3" queueing_time="5.90" queueing_length="6.04" queueing_length_experimental="14.14"/>
            <lane id="-29_4" queueing_time="3.10" queueing_length="6.04" queueing_length_experimental="6.04"/>
        </lanes>
    </data>
    <data timestep="19.30">
        <lanes>
            <lane id="-16_3" queueing_time="4.70" queueing_length="11.94" queueing_length_experimental="11.94"/>
            <lane id="-29_3" queueing_time="6.00" queueing_length="6.04" queueing_length_experimental="14.06"/>
            <lane id="-29_4" queueing_time="3.20" queueing_length="6.04" queueing_length_experimental="6.04"/>
        </lanes>
    </data>
    <data timestep="19.40">
        <lanes>
            <lane id="-16_3" queueing_time="4.80" queueing_length="11.93" queueing_length_experimental="11.93"/>
            <lane id="-16_4" queueing_time="0.00" queueing_length="0.00" queueing_length_experimental="5.31"/>