<?xml version="1.0" encoding="UTF-8"?>

<!-- generated on 2023-09-13 22:12:55 by Eclipse SUMO sumo Version 1.17.0
<configuration xmlns:xsi="http://www.w3.org/2001/XMLSchema-instance" xsi:noNamespaceSchemaLocation="http://sumo.dlr.de/xsd/sumoConfiguration.xsd">

    <input>
        <net-file value="configs/Town05/Town05.net.xml"/>
        <route-files value="configs/Town05/Town05.rou.xml"/>
    </input>

    <output>
        <queue-output value="queue.xml"/>
        <tripinfo-output value="tripinfo.xml"/>
        <collision-output value="collision.xml"/>
    </output>

    <time>
        <step-length value="0.1"/>
    </time>

    <processing>
        <lateral-resolution value="0.25"/>
        <collision.check-junctions value="true"/>
    </processing>

    <emissions>
        <device.emissions.probability value="1.0"/>
    </emissions>

    <traci_server>
        <remote-port value="3001"/>
        <num-clients value="1"/>
    </traci_server>

    <gui_only>
        <gui-settings-file value="configs/Town05/viewsettings.xml"/>
    </gui_only>

</configuration>
-->

<tripinfos xmlns:xsi="http://www.w3.org/2001/XMLSchema-instance" xsi:noNamespaceSchemaLocation="http://sumo.dlr.de/xsd/tripinfo_file.xsd">
    <tripinfo id="f_1.0" depart="0.00" departLane="1_3" departPos="4.31" departPosLat="0.00" departSpeed="0.00" departDelay="0.00" arrival="20.20" arrivalLane="39_3" arrivalPos="46.43" arrivalPosLat="0.00" arrivalSpeed="14.58" duration="20.20" routeLength="194.87" waitingTime="0.00" waitingCount="0" stopTime="0.00" timeLoss="6.94" rerouteNo="0" devices="tripinfo_f_1.0 routing_f_1.0 emissions_f_1.0" vType="vehicle.seat.leon" speedFactor="1.06" vaporized="">
        <emissions CO_abs="1832.333284" CO2_abs="98765.542034" HC_abs="10.662764" PMx_abs="1.931382" NOx_abs="41.832578" fuel_abs="31501.633309" electricity_abs="0"/>
    </tripinfo>
    <tripinfo id="f_1.1" depart="2.50" departLane="1_3" departPos="4.31" departPosLat="0.00" departSpeed="0.00" departDelay="0.50" arrival="24.30" arrivalLane="39_3" arrivalPos="46.43" arrivalPosLat="-0.00" arrivalSpeed="11.49" duration="21.80" routeLength="194.87" waitingTime="0.00" waitingCount="0" stopTime="0.00" timeLoss="4.89" rerouteNo="0" devices="tripinfo_f_1.1 routing_f_1.1 emissions_f_1.1" vType="vehicle.seat.leon" speedFactor="0.83" vaporized="">
        <emissions CO_abs="1583.980160" CO2_abs="81069.585145" HC_abs="9.110965" PMx_abs="1.509168" NOx_abs="33.957045" fuel_abs="25857.576060" electricity_abs="0"/>
    </tripinfo>
    <tripinfo id="f_1.2" depart="5.10" departLane="1_3" departPos="4.31" departPosLat="0.00" departSpeed="0.00" departDelay="1.10" arrival="25.50" arrivalLane="39_4" arrivalPos="46.43" arrivalPosLat="0.00" arrivalSpeed="15.03" duration="20.40" routeLength="194.87" waitingTime="0.00" waitingCount="0" stopTime="0.00" timeLoss="7.47" rerouteNo="0" devices="tripinfo_f_1.2 routing_f_1.2 emissions_f_1.2" vType="vehicle.seat.leon" speedFactor="1.09" vaporized="">
        <emissions CO_abs="1903.569177" CO2_abs="101974.714435" HC_abs="11.070792" PMx_abs="2.003957" NOx_abs="43.242688" fuel_abs="32525.208552" electricity_abs="0"/>
    </tripinfo>
    <tripinfo id="f_1.3" depart="7.70" departLane="1_3" departPos="4.31" departPosLat="0.00" departSpeed="0.00" departDelay="1.70" arrival="28.70" arrivalLane="39_3" arrivalPos="46.43" arrivalPosLat="0.00" arrivalSpeed="12.69" duration="21.00" routeLength="194.87" waitingTime="0.00" waitingCount="0" stopTime="0.00" timeLoss="5.81" rerouteNo="0" devices="tripinfo_f_1.3 routing_f_1.3 emissions_f_1.3" vType="vehicle.seat.leon" speedFactor="0.93" vaporized="">
        <emissions CO_abs="1675.531607" CO2_abs="88634.965440" HC_abs="9.699867" PMx_abs="1.682444" NOx_abs="37.273646" fuel_abs="28270.523442" electricity_abs="0"/>
    </tripinfo>
    <tripinfo id="f_5.0" depart="2.70" departLane="-28_4" departPos="5.14" departPosLat="0.00" departSpeed="0.00" departDelay="2.70" arrival="32.40" arrivalLane="-0_4" arrivalPos="53.56" arrivalPosLat="0.00" arrivalSpeed="14.25" duration="29.70" routeLength="189.02" waitingTime="6.40" waitingCount="1" stopTime="0.00" timeLoss="15.81" rerouteNo="0" devices="tripinfo_f_5.0 routing_f_5.0 emissions_f_5.0" vType="vehicle.mercedes.coupe" speedFactor="1.03" vaporized="">
        <emissions CO_abs="3215.807174" CO2_abs="117843.465556" HC_abs="17.409052" PMx_abs="2.411781" NOx_abs="50.666914" fuel_abs="37587.137836" electricity_abs="0"/>
    </tripinfo>
    <tripinfo id="f_4.0" depart="0.00" departLane="-28_4" departPos="5.14" departPosLat="0.00" departSpeed="0.00" departDelay="0.00" arrival="33.60" arrivalLane="25_3" arrivalPos="64.03" arrivalPosLat="0.00" arrivalSpeed="15.01" duration="33.60" routeLength="202.19" waitingTime="9.20" waitingCount="1" stopTime="0.00" timeLoss="20.12" rerouteNo="0" devices="tripinfo_f_4.0 routing_f_4.0 emissions_f_4.0" vType="vehicle.mercedes.coupe" speedFactor="1.08" vaporized="">
        <emissions CO_abs="3797.167031" CO2_abs="131907.451972" HC_abs="20.375914" PMx_abs="2.739777" NOx_abs="56.898375" fuel_abs="42073.043568" electricity_abs="0"/>
    </tripinfo>
    <tripinfo id="f_5.1" depart="8.20" departLane="-28_4" departPos="5.14" departPosLat="0.00" departSpeed="0.00" departDelay="6.20" arrival="34.20" arrivalLane="-0_4" arrivalPos="53.56" arrivalPosLat="0.00" arrivalSpeed="11.89" duration="26.00" routeLength="189.02" waitingTime="0.00" waitingCount="0" stopTime="0.00" timeLoss="9.34" rerouteNo="0" devices="tripinfo_f_5.1 routing_f_5.1 emissions_f_5.1" vType="vehicle.mercedes.coupe" speedFactor="0.86" vaporized="">
        <emissions CO_abs="1978.793172" CO2_abs="86795.020250" HC_abs="11.031127" PMx_abs="1.635419" NOx_abs="36.520437" fuel_abs="27683.887779" electricity_abs="0"/>
    </tripinfo>
    <tripinfo id="f_4.1" depart="5.40" departLane="-28_4" departPos="5.14" departPosLat="0.00" departSpeed="0.00" departDelay="3.40" arrival="35.00" arrivalLane="25_3" arrivalPos="64.03" arrivalPosLat="-0.00" arrivalSpeed="12.96" duration="29.60" routeLength="202.19" waitingTime="2.20" waitingCount="1" stopTime="0.00" timeLoss="14.07" rerouteNo="0" devices="tripinfo_f_4.1 routing_f_4.1 emissions_f_4.1" vType="vehicle.mercedes.coupe" speedFactor="0.94" vaporized="">
        <emissions CO_abs="2595.755341" CO2_abs="101781.807395" HC_abs="14.199000" PMx_abs="2.021911" NOx_abs="43.410658" fuel_abs="32464.091181" electricity_abs="0"/>
    </tripinfo>
    <tripinfo id="f_5.2" depart="13.70" departLane="-28_4" departPos="5.14" departPosLat="0.00" departSpeed="0.00" departDelay="9.70" arrival="35.30" arrivalLane="-0_4" arrivalPos="53.56" arrivalPosLat="0.00" arrivalSpeed="13.71" duration="21.60" routeLength="189.02" waitingTime="0.00" waitingCount="0" stopTime="0.00" timeLoss="7.23" rerouteNo="0" devices="tripinfo_f_5.2 routing_f_5.2 emissions_f_5.2" vType="vehicle.mercedes.coupe" speedFactor="0.99" vaporized="">
        <emissions CO_abs="1738.010458" CO2_abs="87281.445972" HC_abs="9.969791" PMx_abs="1.695866" NOx_abs="37.049450" fuel_abs="27838.818058" electricity_abs="0"/>
    </tripinfo>
    <tripinfo id="f_4.2" depart="11.00" departLane="-28_4" departPos="5.14" departPosLat="0.00" departSpeed="0.00" departDelay="7.00" arrival="36.10" arrivalLane="25_3" arrivalPos="64.03" arrivalPosLat="-0.00" arrivalSpeed="14.79" duration="25.10" routeLength="202.19" waitingTime="0.00" waitingCount="0" stopTime="0.00" timeLoss="12.11" rerouteNo="0" devices="tripinfo_f_4.2 routing_f_4.2 emissions_f_4.2" vType="vehicle.mercedes.coupe" speedFactor="1.12" vaporized="">
        <emissions CO_abs="2113.707132" CO2_abs="102772.847928" HC_abs="12.057488" PMx_abs="2.013090" NOx_abs="43.684439" fuel_abs="32779.901836" electricity_abs="0"/>
    </tripinfo>
    <tripinfo id="f_4.3" depart="16.50" departLane="-28_4" departPos="5.14" departPosLat="0.00" departSpeed="0.00" departDelay="10.50" arrival="38.00" arrivalLane="25_3" arrivalPos="64.03" arrivalPosLat="0.00" arrivalSpeed="12.86" duration="21.50" routeLength="202.19" waitingTime="0.00" waitingCount="0" stopTime="0.00" timeLoss="5.87" rerouteNo="0" devices="tripinfo_f_4.3 routing_f_4.3 emissions_f_4.3" vType="vehicle.mercedes.coupe" speedFactor="0.94" vaporized="">
        <emissions CO_abs="1573.096182" CO2_abs="82740.352206" HC_abs="9.107684" PMx_abs="1.570308" NOx_abs="34.783832" fuel_abs="26390.418281" electricity_abs="0"/>
    </tripinfo>
    <tripinfo id="f_5.3" depart="19.30" departLane="-28_4" departPos="5.14" departPosLat="0.00" departSpeed="0.00" departDelay="13.30" arrival="38.00" arrivalLane="-0_4" arrivalPos="53.56" arrivalPosLat="0.00" arrivalSpeed="15.95" duration="18.70" routeLength="189.02" waitingTime="0.00" waitingCount="0" stopTime="0.00" timeLoss="6.42" rerouteNo="0" devices="tripinfo_f_5.3 routing_f_5.3 emissions_f_5.3" vType="vehicle.mercedes.coupe" speedFactor="1.16" vaporized="">
        <emissions CO_abs="1852.984172" CO2_abs="100690.334904" HC_abs="10.830363" PMx_abs="2.025677" NOx_abs="42.988992" fuel_abs="32115.484936" electricity_abs="0"/>
    </tripinfo>
    <tripinfo id="f_4.4" depart="22.00" departLane="-28_4" departPos="5.14" departPosLat="0.00" departSpeed="0.00" departDelay="14.00" arrival="43.20" arrivalLane="25_3" arrivalPos="64.03" arrivalPosLat="0.00" arrivalSpeed="12.28" duration="21.20" routeLength="202.19" waitingTime="0.00" waitingCount="0" stopTime="0.00" timeLoss="4.77" rerouteNo="0" devices="tripinfo_f_4.4 routing_f_4.4 emissions_f_4.4" vType="vehicle.mercedes.coupe" speedFactor="0.89" vaporized="">
        <emissions CO_abs="1487.462227" CO2_abs="79669.936898" HC_abs="8.629523" PMx_abs="1.473182" NOx_abs="33.203308" fuel_abs="25411.123839" electricity_abs="0"/>
    </tripinfo>
    <tripinfo id="f_2.2" depart="5.00" departLane="-14_3" departPos="4.31" departPosLat="0.00" departSpeed="0.00" departDelay="1.00" arrival="47.50" arrivalLane="-26_4" arrivalPos="61.99" arrivalPosLat="0.00" arrivalSpeed="14.22" duration="42.50" routeLength="206.69" waitingTime="17.90" waitingCount="1" stopTime="0.00" timeLoss="27.97" rerouteNo="0" devices="tripinfo_f_2.2 routing_f_2.2 emissions_f_2.2" vType="vehicle.seat.leon" speedFactor="1.03" vaporized="">
        <emissions CO_abs="5159.919183" CO2_abs="152070.522509" HC_abs="27.068779" PMx_abs="3.251852" NOx_abs="66.266823" fuel_abs="48504.623549" electricity_abs="0"/>
    </tripinfo>
    <tripinfo id="f_2.0" depart="0.00" departLane="-14_3" departPos="4.31" departPosLat="0.00" departSpeed="0.00" departDelay="0.00" arrival="47.60" arrivalLane="-26_3" arrivalPos="61.99" arrivalPosLat="0.00" arrivalSpeed="12.88" duration="47.60" routeLength="206.69" waitingTime="22.90" waitingCount="1" stopTime="0.00" timeLoss="31.71" rerouteNo="0" devices="tripinfo_f_2.0 routing_f_2.0 emissions_f_2.0" vType="vehicle.seat.leon" speedFactor="0.94" vaporized="">
        <emissions CO_abs="5788.456226" CO2_abs="156757.525096" HC_abs="30.017209" PMx_abs="3.358923" NOx_abs="68.303359" fuel_abs="49999.889552" electricity_abs="0"/>
    </tripinfo>
    <tripinfo id="f_2.1" depart="2.50" departLane="-14_3" departPos="4.31" departPosLat="0.00" departSpeed="0.00" departDelay="0.50" arrival="48.60" arrivalLane="-26_3" arrivalPos="61.99" arrivalPosLat="-0.00" arrivalSpeed="14.44" duration="46.10" routeLength="206.69" waitingTime="19.20" waitingCount="1" stopTime="0.00" timeLoss="31.87" rerouteNo="0" devices="tripinfo_f_2.1 routing_f_2.1 emissions_f_2.1" vType="vehicle.seat.leon" speedFactor="1.05" vaporized="">
        <emissions CO_abs="5507.651069" CO2_abs="157858.926635" HC_abs="28.795522" PMx_abs="3.393159" NOx_abs="68.913819" fuel_abs="50350.978681" electricity_abs="0"/>
    </tripinfo>
    <tripinfo id="f_2.3" depart="7.60" departLane="-14_3" departPos="4.31" departPosLat="0.00" departSpeed="0.00" departDelay="1.60" arrival="49.00" arrivalLane="-26_4" arrivalPos="61.99" arrivalPosLat="0.00" arrivalSpeed="12.04" duration="41.40" routeLength="206.69" waitingTime="13.90" waitingCount="1" stopTime="0.00" timeLoss="24.43" rerouteNo="0" devices="tripinfo_f_2.3 routing_f_2.3 emissions_f_2.3" vType="vehicle.seat.leon" speedFactor="0.88" vaporized="">
        <emissions CO_abs="4423.977538" CO2_abs="130471.738739" HC_abs="23.195276" PMx_abs="2.712518" NOx_abs="56.394616" fuel_abs="41615.530216" electricity_abs="0"/>
    </tripinfo>
    <tripinfo id="f_2.4" depart="10.20" departLane="-14_3" departPos="4.31" departPosLat="0.00" departSpeed="0.00" departDelay="2.20" arrival="49.80" arrivalLane="-26_3" arrivalPos="61.99" arrivalPosLat="0.00" arrivalSpeed="14.03" duration="39.60" routeLength="206.69" waitingTime="12.20" waitingCount="1" stopTime="0.00" timeLoss="24.78" rerouteNo="0" devices="tripinfo_f_2.4 routing_f_2.4 emissions_f_2.4" vType="vehicle.seat.leon" speedFactor="1.01" vaporized="">
        <emissions CO_abs="4422.716441" CO2_abs="140009.012113" HC_abs="23.418945" PMx_abs="2.934906" NOx_abs="60.614420" fuel_abs="44657.325786" electricity_abs="0"/>
    </tripinfo>
    <tripinfo id="f_2.5" depart="12.90" departLane="-14_3" departPos="4.31" departPosLat="0.00" departSpeed="0.00" departDelay="2.90" arrival="50.10" arrivalLane="-26_4" arrivalPos="61.99" arrivalPosLat="0.00" arrivalSpeed="12.57" duration="37.20" routeLength="206.69" waitingTime="9.40" waitingCount="1" stopTime="0.00" timeLoss="20.96" rerouteNo="0" devices="tripinfo_f_2.5 routing_f_2.5 emissions_f_2.5" vType="vehicle.seat.leon" speedFactor="0.92" vaporized="">
        <emissions CO_abs="3784.081018" CO2_abs="121951.336910" HC_abs="20.094717" PMx_abs="2.492817" NOx_abs="52.475713" fuel_abs="38897.668932" electricity_abs="0"/>
    </tripinfo>
    <tripinfo id="f_2.6" depart="15.50" departLane="-14_3" departPos="4.31" departPosLat="0.00" departSpeed="0.00" departDelay="3.50" arrival="50.80" arrivalLane="-26_3" arrivalPos="61.99" arrivalPosLat="-0.00" arrivalSpeed="15.59" duration="35.30" routeLength="206.69" waitingTime="7.70" waitingCount="1" stopTime="0.00" timeLoss="22.41" rerouteNo="0" devices="tripinfo_f_2.6 routing_f_2.6 emissions_f_2.6" vType="vehicle.seat.leon" speedFactor="1.15" vaporized="">
        <emissions CO_abs="3848.298318" CO2_abs="134238.112690" HC_abs="20.694905" PMx_abs="2.810562" NOx_abs="58.172989" fuel_abs="42816.389530" electricity_abs="0"/>
    </tripinfo>
    <tripinfo id="f_2.8" depart="20.70" departLane="-14_3" departPos="4.31" departPosLat="0.00" departSpeed="0.00" departDelay="4.70" arrival="51.30" arrivalLane="-26_4" arrivalPos="61.99" arrivalPosLat="0.00" arrivalSpeed="13.18" duration="30.60" routeLength="206.69" waitingTime="2.60" waitingCount="1" stopTime="0.00" timeLoss="14.98" rerouteNo="0" devices="tripinfo_f_2.8 routing_f_2.8 emissions_f_2.8" vType="vehicle.seat.leon" speedFactor="0.96" vaporized="">
        <emissions CO_abs="2808.996267" CO2_abs="110964.725831" HC_abs="15.394785" PMx_abs="2.221768" NOx_abs="47.485916" fuel_abs="35393.017981" electricity_abs="0"/>
    </tripinfo>
    <tripinfo id="f_2.10" depart="25.90" departLane="-14_3" departPos="4.31" departPosLat="0.00" departSpeed="0.00" departDelay="5.90" arrival="52.40" arrivalLane="-26_4" arrivalPos="61.99" arrivalPosLat="0.00" arrivalSpeed="15.37" duration="26.50" routeLength="206.69" waitingTime="0.00" waitingCount="0" stopTime="0.00" timeLoss="13.74" rerouteNo="0" devices="tripinfo_f_2.10 routing_f_2.10 emissions_f_2.10" vType="vehicle.seat.leon" speedFactor="1.17" vaporized="">
        <emissions CO_abs="2342.669068" CO2_abs="110616.413423" HC_abs="13.286632" PMx_abs="2.201357" NOx_abs="47.281078" fuel_abs="35281.645605" electricity_abs="0"/>
    </tripinfo>
    <tripinfo id="f_2.7" depart="18.10" departLane="-14_3" departPos="4.31" departPosLat="0.00" departSpeed="0.00" departDelay="4.10" arrival="52.80" arrivalLane="-26_3" arrivalPos="61.99" arrivalPosLat="-0.00" arrivalSpeed="13.46" duration="34.70" routeLength="206.69" waitingTime="5.70" waitingCount="1" stopTime="0.00" timeLoss="19.36" rerouteNo="0" devices="tripinfo_f_2.7 routing_f_2.7 emissions_f_2.7" vType="vehicle.seat.leon" speedFactor="0.97" vaporized="">
        <emissions CO_abs="3442.676160" CO2_abs="121515.325088" HC_abs="18.522964" PMx_abs="2.472009" NOx_abs="52.222634" fuel_abs="38758.399433" electricity_abs="0"/>
    </tripinfo>
    <tripinfo id="f_2.9" depart="23.30" departLane="-14_3" departPos="4.31" departPosLat="0.00" departSpeed="0.00" departDelay="5.30" arrival="54.10" arrivalLane="-26_3" arrivalPos="61.99" arrivalPosLat="0.00" arrivalSpeed="13.85" duration="30.80" routeLength="206.69" waitingTime="1.50" waitingCount="1" stopTime="0.00" timeLoss="15.82" rerouteNo="0" devices="tripinfo_f_2.9 routing_f_2.9 emissions_f_2.9" vType="vehicle.seat.leon" speedFactor="1.00" vaporized="">
        <emissions CO_abs="2814.768039" CO2_abs="112122.381821" HC_abs="15.443553" PMx_abs="2.246185" NOx_abs="47.995702" fuel_abs="35762.241985" electricity_abs="0"/>
    </tripinfo>
    <tripinfo id="f_2.11" depart="28.40" departLane="-14_3" departPos="4.31" departPosLat="0.00" departSpeed="0.00" departDelay="6.40" arrival="54.30" arrivalLane="-26_4" arrivalPos="61.99" arrivalPosLat="0.00" arrivalSpeed="12.49" duration="25.90" routeLength="206.69" waitingTime="0.00" waitingCount="0" stopTime="0.00" timeLoss="9.30" rerouteNo="0" devices="tripinfo_f_2.11 routing_f_2.11 emissions_f_2.11" vType="vehicle.seat.leon" speedFactor="0.90" vaporized="">
        <emissions CO_abs="1983.692718" CO2_abs="94963.236114" HC_abs="11.257521" PMx_abs="1.825652" NOx_abs="40.204473" fuel_abs="30289.040063" electricity_abs="0"/>
    </tripinfo>
    <tripinfo id="f_2.12" depart="31.00" departLane="-14_3" departPos="4.31" departPosLat="0.00" departSpeed="0.00" departDelay="7.00" arrival="55.30" arrivalLane="-26_3" arrivalPos="61.99" arrivalPosLat="0.00" arrivalSpeed="15.38" duration="24.30" routeLength="206.69" waitingTime="0.00" waitingCount="0" stopTime="0.00" timeLoss="10.95" rerouteNo="0" devices="tripinfo_f_2.12 routing_f_2.12 emissions_f_2.12" vType="vehicle.seat.leon" speedFactor="1.12" vaporized="">
        <emissions CO_abs="2061.542300" CO2_abs="102353.484759" HC_abs="11.803935" PMx_abs="2.010310" NOx_abs="43.549387" fuel_abs="32646.107700" electricity_abs="0"/>
    </tripinfo>
    <tripinfo id="f_2.13" depart="33.70" departLane="-14_3" departPos="4.31" departPosLat="0.00" departSpeed="0.00" departDelay="7.70" arrival="57.60" arrivalLane="-26_3" arrivalPos="61.99" arrivalPosLat="-0.00" arrivalSpeed="12.52" duration="23.90" routeLength="206.69" waitingTime="0.00" waitingCount="0" stopTime="0.00" timeLoss="7.43" rerouteNo="0" devices="tripinfo_f_2.13 routing_f_2.13 emissions_f_2.13" vType="vehicle.seat.leon" speedFactor="0.91" vaporized="">
        <emissions CO_abs="1739.369794" CO2_abs="87594.737529" HC_abs="9.963391" PMx_abs="1.655868" NOx_abs="36.877308" fuel_abs="27938.792944" electricity_abs="0"/>
    </tripinfo>
    <tripinfo id="f_2.14" depart="36.30" departLane="-14_3" departPos="4.31" departPosLat="0.00" departSpeed="0.00" departDelay="8.30" arrival="57.60" arrivalLane="-26_4" arrivalPos="61.99" arrivalPosLat="0.00" arrivalSpeed="13.34" duration="21.30" routeLength="206.69" waitingTime="0.00" waitingCount="0" stopTime="0.00" timeLoss="6.01" rerouteNo="0" devices="tripinfo_f_2.14 routing_f_2.14 emissions_f_2.14" vType="vehicle.seat.leon" speedFactor="0.97" vaporized="">
        <emissions CO_abs="1656.040583" CO2_abs="89188.255843" HC_abs="9.584382" PMx_abs="1.666475" NOx_abs="37.187276" fuel_abs="28447.013111" electricity_abs="0"/>
    </tripinfo>
    <tripinfo id="f_1.6" depart="15.40" departLane="1_3" departPos="4.31" departPosLat="0.00" departSpeed="0.00" departDelay="3.40" arrival="61.40" arrivalLane="39_4" arrivalPos="46.43" arrivalPosLat="0.00" arrivalSpeed="15.29" duration="46.00" routeLength="194.87" waitingTime="21.80" waitingCount="1" stopTime="0.00" timeLoss="34.05" rerouteNo="0" devices="tripinfo_f_1.6 routing_f_1.6 emissions_f_1.6" vType="vehicle.seat.leon" speedFactor="1.18" vaporized="">
        <emissions CO_abs="5979.422566" CO2_abs="171759.268780" HC_abs="31.290308" PMx_abs="3.732226" NOx_abs="75.304733" fuel_abs="54784.600443" electricity_abs="0"/>
    </tripinfo>
    <tripinfo id="f_1.4" depart="10.20" departLane="1_3" departPos="4.31" departPosLat="0.00" departSpeed="0.00" departDelay="2.20" arrival="61.50" arrivalLane="39_3" arrivalPos="46.43" arrivalPosLat="-0.00" arrivalSpeed="14.12" duration="51.30" routeLength="194.87" waitingTime="26.80" waitingCount="1" stopTime="0.00" timeLoss="37.49" rerouteNo="0" devices="tripinfo_f_1.4 routing_f_1.4 emissions_f_1.4" vType="vehicle.seat.leon" speedFactor="1.02" vaporized="">
        <emissions CO_abs="6667.849459" CO2_abs="175997.389640" HC_abs="34.499424" PMx_abs="3.849108" NOx_abs="77.305284" fuel_abs="56136.712462" electricity_abs="0"/>
    </tripinfo>
    <tripinfo id="f_1.8" depart="20.50" departLane="1_3" departPos="4.31" departPosLat="0.00" departSpeed="0.00" departDelay="4.50" arrival="62.50" arrivalLane="39_3" arrivalPos="46.43" arrivalPosLat="-0.00" arrivalSpeed="14.22" duration="42.00" routeLength="194.87" waitingTime="13.60" waitingCount="1" stopTime="0.00" timeLoss="28.34" rerouteNo="0" devices="tripinfo_f_1.8 routing_f_1.8 emissions_f_1.8" vType="vehicle.seat.leon" speedFactor="1.03" vaporized="">
        <emissions CO_abs="4773.689492" CO2_abs="144636.789238" HC_abs="25.138461" PMx_abs="3.066885" NOx_abs="63.038509" fuel_abs="46133.481218" electricity_abs="0"/>
    </tripinfo>
    <tripinfo id="f_1.5" depart="12.80" departLane="1_3" departPos="4.31" departPosLat="0.00" departSpeed="0.00" departDelay="2.80" arrival="62.70" arrivalLane="39_4" arrivalPos="46.43" arrivalPosLat="0.00" arrivalSpeed="11.96" duration="49.90" routeLength="194.87" waitingTime="22.70" waitingCount="1" stopTime="0.00" timeLoss="33.77" rerouteNo="0" devices="tripinfo_f_1.5 routing_f_1.5 emissions_f_1.5" vType="vehicle.seat.leon" speedFactor="0.87" vaporized="">
        <emissions CO_abs="5945.560469" CO2_abs="154847.232429" HC_abs="30.698546" PMx_abs="3.341553" NOx_abs="67.759545" fuel_abs="49390.687435" electricity_abs="0"/>
    </tripinfo>
    <tripinfo id="f_1.9" depart="23.10" departLane="1_3" departPos="4.31" departPosLat="0.00" departSpeed="0.00" departDelay="5.10" arrival="63.50" arrivalLane="39_3" arrivalPos="46.43" arrivalPosLat="-0.00" arrivalSpeed="15.07" duration="40.40" routeLength="194.87" waitingTime="12.40" waitingCount="1" stopTime="0.00" timeLoss="27.43" rerouteNo="0" devices="tripinfo_f_1.9 routing_f_1.9 emissions_f_1.9" vType="vehicle.seat.leon" speedFactor="1.09" vaporized="">
        <emissions CO_abs="4457.453938" CO2_abs="137673.569378" HC_abs="23.543732" PMx_abs="2.910772" NOx_abs="59.909398" fuel_abs="43912.446040" electricity_abs="0"/>
    </tripinfo>
    <tripinfo id="f_1.7" depart="17.90" departLane="1_3" departPos="4.31" departPosLat="0.00" departSpeed="0.00" departDelay="3.90" arrival="63.80" arrivalLane="39_4" arrivalPos="46.43" arrivalPosLat="0.00" arrivalSpeed="13.66" duration="45.90" routeLength="194.87" waitingTime="18.50" waitingCount="1" stopTime="0.00" timeLoss="32.06" rerouteNo="0" devices="tripinfo_f_1.7 routing_f_1.7 emissions_f_1.7" vType="vehicle.seat.leon" speedFactor="1.02" vaporized="">
        <emissions CO_abs="5464.960443" CO2_abs="154514.030850" HC_abs="28.524353" PMx_abs="3.308203" NOx_abs="67.491131" fuel_abs="49284.137978" electricity_abs="0"/>
    </tripinfo>
    <tripinfo id="f_1.11" depart="28.20" departLane="1_3" departPos="4.31" departPosLat="0.00" departSpeed="0.00" departDelay="6.20" arrival="64.80" arrivalLane="39_4" arrivalPos="46.43" arrivalPosLat="0.00" arrivalSpeed="13.75" duration="36.60" routeLength="194.87" waitingTime="9.10" waitingCount="1" stopTime="0.00" timeLoss="22.50" rerouteNo="0" devices="tripinfo_f_1.11 routing_f_1.11 emissions_f_1.11" vType="vehicle.seat.leon" speedFactor="1.00" vaporized="">
        <emissions CO_abs="3983.726462" CO2_abs="131006.302565" HC_abs="21.226442" PMx_abs="2.742818" NOx_abs="56.866085" fuel_abs="41785.714191" electricity_abs="0"/>
    </tripinfo>
    <tripinfo id="f_1.10" depart="25.60" departLane="1_3" departPos="4.31" departPosLat="0.00" departSpeed="0.00" departDelay="5.60" arrival="65.20" arrivalLane="39_3" arrivalPos="46.43" arrivalPosLat="-0.00" arrivalSpeed="11.70" duration="39.60" routeLength="194.87" waitingTime="11.10" waitingCount="1" stopTime="0.00" timeLoss="23.19" rerouteNo="0" devices="tripinfo_f_1.10 routing_f_1.10 emissions_f_1.10" vType="vehicle.seat.leon" speedFactor="0.85" vaporized="">
        <emissions CO_abs="4145.703125" CO2_abs="125614.594256" HC_abs="21.830307" PMx_abs="2.627311" NOx_abs="54.538048" fuel_abs="40066.185815" electricity_abs="0"/>
    </tripinfo>
    <tripinfo id="f_1.12" depart="30.80" departLane="1_3" departPos="4.31" departPosLat="0.00" departSpeed="0.00" departDelay="6.80" arrival="66.40" arrivalLane="39_3" arrivalPos="46.43" arrivalPosLat="-0.00" arrivalSpeed="14.27" duration="35.60" routeLength="194.87" waitingTime="7.60" waitingCount="1" stopTime="0.00" timeLoss="22.63" rerouteNo="0" devices="tripinfo_f_1.12 routing_f_1.12 emissions_f_1.12" vType="vehicle.seat.leon" speedFactor="1.08" vaporized="">
        <emissions CO_abs="3832.839073" CO2_abs="130494.613413" HC_abs="20.538672" PMx_abs="2.729186" NOx_abs="56.673906" fuel_abs="41622.420843" electricity_abs="0"/>
    </tripinfo>
    <tripinfo id="f_1.13" depart="33.40" departLane="1_3" departPos="4.31" departPosLat="0.00" departSpeed="0.00" departDelay="7.40" arrival="66.50" arrivalLane="39_4" arrivalPos="46.43" arrivalPosLat="0.00" arrivalSpeed="12.19" duration="33.10" routeLength="194.87" waitingTime="4.80" waitingCount="1" stopTime="0.00" timeLoss="17.18" rerouteNo="0" devices="tripinfo_f_1.13 routing_f_1.13 emissions_f_1.13" vType="vehicle.seat.leon" speedFactor="0.88" vaporized="">
        <emissions CO_abs="3212.028878" CO2_abs="113974.623088" HC_abs="17.299395" PMx_abs="2.308368" NOx_abs="49.041395" fuel_abs="36353.218483" electricity_abs="0"/>
    </tripinfo>
    <tripinfo id="f_1.14" depart="36.00" departLane="1_3" departPos="4.31" departPosLat="0.00" departSpeed="0.00" departDelay="8.00" arrival="67.70" arrivalLane="39_3" arrivalPos="46.43" arrivalPosLat="-0.00" arrivalSpeed="14.15" duration="31.70" routeLength="194.87" waitingTime="3.10" waitingCount="1" stopTime="0.00" timeLoss="17.95" rerouteNo="0" devices="tripinfo_f_1.14 routing_f_1.14 emissions_f_1.14" vType="vehicle.seat.leon" speedFactor="1.02" vaporized="">
        <emissions CO_abs="3120.134061" CO2_abs="117307.175186" HC_abs="16.958996" PMx_abs="2.384477" NOx_abs="50.499100" fuel_abs="37416.037097" electricity_abs="0"/>
    </tripinfo>
    <tripinfo id="f_1.16" depart="41.20" departLane="1_3" departPos="4.31" departPosLat="0.00" departSpeed="0.00" departDelay="9.20" arrival="67.70" arrivalLane="39_4" arrivalPos="46.43" arrivalPosLat="0.00" arrivalSpeed="14.23" duration="26.50" routeLength="194.87" waitingTime="0.00" waitingCount="0" stopTime="0.00" timeLoss="12.90" rerouteNo="0" devices="tripinfo_f_1.16 routing_f_1.16 emissions_f_1.16" vType="vehicle.seat.leon" speedFactor="1.03" vaporized="">
        <emissions CO_abs="2324.440352" CO2_abs="105932.038680" HC_abs="13.089167" PMx_abs="2.094494" NOx_abs="45.284667" fuel_abs="33787.601421" electricity_abs="0"/>
    </tripinfo>
    <tripinfo id="f_1.15" depart="38.60" departLane="1_3" departPos="4.31" departPosLat="0.00" departSpeed="0.00" departDelay="8.60" arrival="69.20" arrivalLane="39_3" arrivalPos="46.43" arrivalPosLat="0.00" arrivalSpeed="13.62" duration="30.60" routeLength="194.87" waitingTime="1.10" waitingCount="1" stopTime="0.00" timeLoss="16.33" rerouteNo="0" devices="tripinfo_f_1.15 routing_f_1.15 emissions_f_1.15" vType="vehicle.seat.leon" speedFactor="0.98" vaporized="">
        <emissions CO_abs="2791.274597" CO2_abs="109551.428204" HC_abs="15.281817" PMx_abs="2.190537" NOx_abs="46.975286" fuel_abs="34942.242590" electricity_abs="0"/>
    </tripinfo>
    <tripinfo id="f_1.17" depart="43.80" departLane="1_3" departPos="4.31" departPosLat="0.00" departSpeed="0.00" departDelay="9.80" arrival="69.60" arrivalLane="39_4" arrivalPos="46.43" arrivalPosLat="0.00" arrivalSpeed="13.45" duration="25.80" routeLength="194.87" waitingTime="0.00" waitingCount="0" stopTime="0.00" timeLoss="11.38" rerouteNo="0" devices="tripinfo_f_1.17 routing_f_1.17 emissions_f_1.17" vType="vehicle.seat.leon" speedFactor="0.98" vaporized="">
        <emissions CO_abs="2161.358966" CO2_abs="99701.321169" HC_abs="12.173269" PMx_abs="1.929389" NOx_abs="42.300977" fuel_abs="31800.310741" electricity_abs="0"/>
    </tripinfo>
    <tripinfo id="f_1.18" depart="46.40" departLane="1_3" departPos="4.31" departPosLat="0.00" departSpeed="0.00" departDelay="10.40" arrival="71.90" arrivalLane="39_3" arrivalPos="46.43" arrivalPosLat="-0.00" arrivalSpeed="14.08" duration="25.50" routeLength="194.87" waitingTime="1.30" waitingCount="1" stopTime="0.00" timeLoss="11.66" rerouteNo="0" devices="tripinfo_f_1.18 routing_f_1.18 emissions_f_1.18" vType="vehicle.seat.leon" speedFactor="1.02" vaporized="">
        <emissions CO_abs="2424.725286" CO2_abs="107175.010892" HC_abs="13.563332" PMx_abs="2.127729" NOx_abs="45.757260" fuel_abs="34184.097266" electricity_abs="0"/>
    </tripinfo>
    <tripinfo id="f_1.20" depart="51.50" departLane="1_3" departPos="4.31" departPosLat="0.00" departSpeed="0.00" departDelay="11.50" arrival="72.20" arrivalLane="39_4" arrivalPos="46.43" arrivalPosLat="0.00" arrivalSpeed="14.68" duration="20.70" routeLength="194.87" waitingTime="0.00" waitingCount="0" stopTime="0.00" timeLoss="7.47" rerouteNo="0" devices="tripinfo_f_1.20 routing_f_1.20 emissions_f_1.20" vType="vehicle.seat.leon" speedFactor="1.06" vaporized="">
        <emissions CO_abs="1856.367517" CO2_abs="97323.374149" HC_abs="10.751039" PMx_abs="1.916616" NOx_abs="41.352430" fuel_abs="31041.664301" electricity_abs="0"/>
    </tripinfo>